  MPI-parallelism will be employed.
------------------------------------------------------------
          Invoking FHI-aims ...
          Version 171221
          Git rev.: 70e78bb6 VB: Updated error message for aborted rel[...]
          Compiled on 2017/12/22 at 19:14:53 on host egr-vwb3-mbp2.local.

          When using FHI-aims, please cite the following reference:

          Volker Blum, Ralf Gehrke, Felix Hanke, Paula Havu,
          Ville Havu, Xinguo Ren, Karsten Reuter, and Matthias Scheffler,
          'Ab Initio Molecular Simulations with Numeric Atom-Centered Orbitals',
          Computer Physics Communications 180, 2175-2196 (2009)

          For any questions about FHI-aims, please visit the aimsclub website
          with its forums and wiki. Contributions to both the forums and the
          wiki are warmly encouraged - they are for you, and everyone is welcome there.

------------------------------------------------------------



  Date     :  20171222, Time     :  232806.537
  Time zero on CPU 1             :   0.898320000000000E-01  s.
  Internal wall clock time zero  :           283217286.537  s.

  FHI-aims created a unique identifier for this run for later identification
  aims_uuid : E815C228-9375-478C-A94F-72FA76BF20F1

  Using        4 parallel tasks.
  Task        0 on host egr-vwb3-mbp2.netgear.com reporting.
  Task        1 on host egr-vwb3-mbp2.netgear.com reporting.
  Task        2 on host egr-vwb3-mbp2.netgear.com reporting.
  Task        3 on host egr-vwb3-mbp2.netgear.com reporting.

  Performing system and environment tests:
  *** Environment variable OMP_NUM_THREADS is not set
  *** For performance reasons you might want to set it to 1
  | Maximum stacksize for task 0: 48 [Mb]
  | Maximum stacksize for task 1: 48 [Mb]
  | Maximum stacksize for task 2: 48 [Mb]
  | Maximum stacksize for task 3: 48 [Mb]
   *** Stacksize is not set to unlimited. This might cause problems...
  | Current stacksize for task 0: 48 [Mb]
  | Current stacksize for task 1: 48 [Mb]
  | Current stacksize for task 2: 48 [Mb]
  | Current stacksize for task 3: 48 [Mb]
  | Checking for scalapack...
  | Testing pdtran()...
  | All pdtran() tests passed.

  Obtaining array dimensions for all initial allocations:
  
  -----------------------------------------------------------------------
  Parsing control.in (first pass over file, find array dimensions only).
  The contents of control.in will be repeated verbatim below
  unless switched off by setting 'verbatim_writeout .false.' .
  in the first line of control.in .
  -----------------------------------------------------------------------
  
  #########################################################################################
  #
  #  Volker Blum, 2016 : Test run input file control.in for simple H2O
  #
  #########################################################################################
  #
  #  Physical model
  #
    xc                 pbe
    spin               none
    relativistic       none
    charge             0.
  #
  #  Relaxation
  #
    relax_geometry   bfgs 1.e-2
  #
  ################################################################################
  #
  #  FHI-aims code project
  #  VB, Fritz-Haber Institut, 2009
  #
  #  Suggested "light" defaults for H atom (to be pasted into control.in file)
  #  Be sure to double-check any results obtained with these settings for post-processing,
  #  e.g., with the "tight" defaults and larger basis sets.
  #
  ################################################################################
    species        H
  #     global species definitions
      nucleus             1
      mass                1.00794
  #
      l_hartree           4
  #
      cut_pot             3.5  1.5  1.0
      basis_dep_cutoff    1e-4
  #
      radial_base         24 5.0
      radial_multiplier   1
      angular_grids       specified
        division   0.2421   50
        division   0.3822  110
        division   0.4799  194
        division   0.5341  302
  #      division   0.5626  434
  #      division   0.5922  590
  #      division   0.6542  770
  #      division   0.6868 1202
  #      outer_grid  770
        outer_grid  302
  ################################################################################
  #
  #  Definition of "minimal" basis
  #
  ################################################################################
  #     valence basis states
      valence      1  s   1.
  #     ion occupancy
      ion_occ      1  s   0.5
  ################################################################################
  #
  #  Suggested additional basis functions. For production calculations,
  #  uncomment them one after another (the most important basis functions are
  #  listed first).
  #
  #  Basis constructed for dimers: 0.5 A, 0.7 A, 1.0 A, 1.5 A, 2.5 A
  #
  ################################################################################
  #  "First tier" - improvements: -1014.90 meV to -62.69 meV
       hydro 2 s 2.1
       hydro 2 p 3.5
  #  "Second tier" - improvements: -12.89 meV to -1.83 meV
  #     hydro 1 s 0.85
  #     hydro 2 p 3.7
  #     hydro 2 s 1.2
  #     hydro 3 d 7
  #  "Third tier" - improvements: -0.25 meV to -0.12 meV
  #     hydro 4 f 11.2
  #     hydro 3 p 4.8
  #     hydro 4 d 9
  #     hydro 3 s 3.2
  
  ################################################################################
  #
  #  FHI-aims code project
  #  VB, Fritz-Haber Institut, 2009
  #
  #  Suggested "light" defaults for O atom (to be pasted into control.in file)
  #  Be sure to double-check any results obtained with these settings for post-processing,
  #  e.g., with the "tight" defaults and larger basis sets.
  #
  ################################################################################
    species        O
  #     global species definitions
      nucleus             8
      mass                15.9994
  #
      l_hartree           4
  #
      cut_pot             3.5  1.5  1.0
      basis_dep_cutoff    1e-4
  #
      radial_base         36 5.0
      radial_multiplier   1
       angular_grids specified
        division   0.2659   50
        division   0.4451  110
        division   0.6052  194
        division   0.7543  302
  #      division   0.8014  434
  #      division   0.8507  590
  #      division   0.8762  770
  #      division   0.9023  974
  #      division   1.2339 1202
  #      outer_grid 974
        outer_grid 302
  ################################################################################
  #
  #  Definition of "minimal" basis
  #
  ################################################################################
  #     valence basis states
      valence      2  s   2.
      valence      2  p   4.
  #     ion occupancy
      ion_occ      2  s   1.
      ion_occ      2  p   3.
  ################################################################################
  #
  #  Suggested additional basis functions. For production calculations,
  #  uncomment them one after another (the most important basis functions are
  #  listed first).
  #
  #  Constructed for dimers: 1.0 A, 1.208 A, 1.5 A, 2.0 A, 3.0 A
  #
  ################################################################################
  #  "First tier" - improvements: -699.05 meV to -159.38 meV
       hydro 2 p 1.8
       hydro 3 d 7.6
       hydro 3 s 6.4
  #  "Second tier" - improvements: -49.91 meV to -5.39 meV
  #     hydro 4 f 11.6
  #     hydro 3 p 6.2
  #     hydro 3 d 5.6
  #     hydro 5 g 17.6
  #     hydro 1 s 0.75
  #  "Third tier" - improvements: -2.83 meV to -0.50 meV
  #     ionic 2 p auto
  #     hydro 4 f 10.8
  #     hydro 4 d 4.7
  #     hydro 2 s 6.8
  #  "Fourth tier" - improvements: -0.40 meV to -0.12 meV
  #     hydro 3 p 5
  #     hydro 3 s 3.3
  #     hydro 5 g 15.6
  #     hydro 4 f 17.6
  #     hydro 4 d 14
  # Further basis functions - -0.08 meV and below
  #     hydro 3 s 2.1
  #     hydro 4 d 11.6
  #     hydro 3 p 16
  #     hydro 2 s 17.2
  
  -----------------------------------------------------------------------
  Completed first pass over input file control.in .
  -----------------------------------------------------------------------
  
  
  -----------------------------------------------------------------------
  Parsing geometry.in (first pass over file, find array dimensions only).
  The contents of geometry.in will be repeated verbatim below
  unless switched off by setting 'verbatim_writeout .false.' .
  in the first line of geometry.in .
  -----------------------------------------------------------------------
  
  # Geometry for water -- needs to be relaxed as the water molecule
  # described here has a 90degree bond angle and a
  # 1 Angstrom bond distance ...
  atom    0.00000000    0.00000000    0.00000000    O
  atom    0.70700000   -0.70700000    0.00000000    H
  atom   -0.70700000   -0.70700000    0.00000000    H
  
  -----------------------------------------------------------------------
  Completed first pass over input file geometry.in .
  -----------------------------------------------------------------------
  

  Basic array size parameters:
  | Number of species                 :        2
  | Number of atoms                   :        3
  | Max. basis fn. angular momentum   :        2
  | Max. atomic/ionic basis occupied n:        2
  | Max. number of basis fn. types    :        2
  | Max. radial fns per species/type  :        3
  | Max. logarithmic grid size        :     1301
  | Max. radial integration grid size :       36
  | Max. angular integration grid size:      302
  | Max. angular grid division number :        8
  | Radial grid for Hartree potential :     1301
  | Number of spin channels           :        1

------------------------------------------------------------
          Reading file control.in.
------------------------------------------------------------
  XC: Using PBE gradient-corrected functionals.
  Spin treatment: No spin polarisation.
  Non-relativistic treatment of kinetic energy.
  Charge =   0.000000E+00: Neutral system requested explicitly.
  Geometry relaxation: Modified BFGS - TRM (trust radius method, i.e., trusted quadratic extrapolation).
  Convergence accuracy for geometry relaxation: Maximum force <   0.100000E-01 eV/A.
 
  Reading configuration options for species H                   .
  | Found nuclear charge :   1.0000
  | Found atomic mass :    1.00794000000000      amu
  | Found l_max for Hartree potential  :   4
  | Found cutoff potl. onset [A], width [A], scale factor :    3.50000    1.50000    1.00000
  | Threshold for basis-dependent cutoff potential is   0.100000E-03
  | Found data for basic radial integration grid :    24 points, outermost radius =    5.000 A
  | Found multiplier for basic radial grid :   1
  | Found angular grid specification: user-specified.
  | Specified grid contains     5 separate shells.
  | Check grid settings after all constraints further below.
  | Found free-atom valence shell :  1 s   1.000
  | No ionic wave fns used. Skipping ion_occ.
  | Found hydrogenic basis function :  2 s   2.100
  | Found hydrogenic basis function :  2 p   3.500
  Species H                   : Missing cutoff potential type.
  Defaulting to exp(1/x)/(1-x)^2 type cutoff potential.
  Species H : No 'logarithmic' tag. Using default grid for free atom:
  | Default logarithmic grid data [bohr] : 0.1000E-03 0.1000E+03 0.1012E+01
  Species H : On-site basis accuracy parameter (for Gram-Schmidt orthonormalisation) not specified.
  Using default value basis_acc =  0.1000000E-03.
  Species H                   : Using default innermost maximum threshold i_radial=  2 for radial functions.
  Species H                   : Default cutoff onset for free atom density etc. : 0.35000000E+01 AA.
  Species H                   : Basic radial grid will be enhanced according to radial_multiplier =   1, to contain    24 grid points.
 
  Reading configuration options for species O                   .
  | Found nuclear charge :   8.0000
  | Found atomic mass :    15.9994000000000      amu
  | Found l_max for Hartree potential  :   4
  | Found cutoff potl. onset [A], width [A], scale factor :    3.50000    1.50000    1.00000
  | Threshold for basis-dependent cutoff potential is   0.100000E-03
  | Found data for basic radial integration grid :    36 points, outermost radius =    5.000 A
  | Found multiplier for basic radial grid :   1
  | Found angular grid specification: user-specified.
  | Specified grid contains     5 separate shells.
  | Check grid settings after all constraints further below.
  | Found free-atom valence shell :  2 s   2.000
  | Found free-atom valence shell :  2 p   4.000
  | No ionic wave fns used. Skipping ion_occ.
  | No ionic wave fns used. Skipping ion_occ.
  | Found hydrogenic basis function :  2 p   1.800
  | Found hydrogenic basis function :  3 d   7.600
  | Found hydrogenic basis function :  3 s   6.400
  Species O                   : Missing cutoff potential type.
  Defaulting to exp(1/x)/(1-x)^2 type cutoff potential.
  Species O : No 'logarithmic' tag. Using default grid for free atom:
  | Default logarithmic grid data [bohr] : 0.1000E-03 0.1000E+03 0.1012E+01
  Species O : On-site basis accuracy parameter (for Gram-Schmidt orthonormalisation) not specified.
  Using default value basis_acc =  0.1000000E-03.
  Species O                   : Using default innermost maximum threshold i_radial=  2 for radial functions.
  Species O                   : Default cutoff onset for free atom density etc. : 0.35000000E+01 AA.
  Species O                   : Basic radial grid will be enhanced according to radial_multiplier =   1, to contain    36 grid points.
 
  Finished reading input file 'control.in'. Consistency checks are next.
 
  MPI_IN_PLACE appears to work with this MPI implementation.
  | Keeping use_mpi_in_place .true. (see manual).
  Target number of points in a grid batch is not set. Defaulting to  100
  Method for grid partitioning is not set. Defaulting to parallel hash+maxmin partitioning.
  Batch size limit is not set. Defaulting to    200
  By default, will store active basis functions for each batch.
  If in need of memory, prune_basis_once .false. can be used to disable this option.
  communication_type for Hartree potential was not specified.
  Defaulting to calc_hartree .
  Defaulting to Pulay charge density mixer.
  Pulay mixer: Number of relevant iterations not set.
  Defaulting to    8 iterations.
  Pulay mixer: Number of initial linear mixing iterations not set.
  Defaulting to    0 iterations.
  Work space size for distributed Hartree potential not set.
  Defaulting to   0.200000E+03 MB.
  Mixing parameter for charge density mixing has not been set.
  Using default: charge_mix_param =     0.0500.
  The mixing parameter will be adjusted in iteration number     2 of the first full s.c.f. cycle only.
  Algorithm-dependent basis array size parameters:
  | n_max_pulay                         :        8
 * Notice: The s.c.f. convergence criterion sc_accuracy_rho was not provided.
 * We used to stop in this case, and ask the user to provide reasonable
 * scf convergence criteria. However, this led some users to employ criteria
 * that led to extremely long run times, e.g., for simple relaxation.
 * We now preset a default value for sc_accuracy_rho if it is not set.
 * You may still wish to check if this setting is too tight or too loose for your needs.
 * Based on n_atoms, FHI-aims chose sc_accuracy_rho =  0.100000E-05 .
  Maximum number of self-consistency iterations not provided.
  Presetting  1000 iterations.
  Presetting        40 iterations before the initial mixing cycle
  is restarted anyway using the sc_init_iter criterion / keyword.
  Presetting a factor      1.000 between actual scf density residual
  and density convergence criterion sc_accuracy_rho below which sc_init_iter
  takes no effect.
 * No s.c.f. convergence criteria (sc_accuracy_*) were provided in control.in.
 * The run will proceed with a reasonable default guess, but please check whether.
 * the s.c.f. cycles seem to take too much or too little time.
  No maximum number of relaxation steps, defaulting to     1000
  Default initial Hessian is Lindh matrix (thres = 15.00) plus  0.200000E+01 eV/A^2 times unity.
  No maximum energy tolerance for TRM/BFGS moves, defaulting to   0.200000E-03
  No harmonic length scale. Defaulting to   0.250000E-01 A.
  No trust radius initializer. Defaulting to   0.200000E+00 A.
  Force calculation: scf convergence accuracy of forces not set.
  Defaulting to 'sc_accuracy_forces not_checked'.
  Handling of forces: Unphysical translation and rotation will be removed from forces.
  No accuracy limit for integral partition fn. given. Defaulting to  0.1000E-14.
  No threshold value for u(r) in integrations given. Defaulting to  0.1000E-05.
  No occupation type (smearing scheme) given. Defaulting to Gaussian broadening, width =  0.1000E-01 eV.
  The width will be adjusted in iteration number     2 of the first full s.c.f. cycle only.
  S.C.F. convergence parameters will be adjusted in iteration number     2 of the first full s.c.f. cycle only.
  No accuracy for occupation numbers given. Defaulting to  0.1000E-12.
  No threshold value for occupation numbers given. Defaulting to  0.0000E+00.
  No accuracy for fermi level given. Defaulting to  0.1000E-19.
  Maximum # of iterations to find E_F not set. Defaulting to  200.
  Preferred method for the eigenvalue solver ('KS_method') not specified in 'control.in'.
  Calling BLACS routine to test compilation state
  Since ScaLAPACK support is enabled, defaulting to 'elsi'.
  Will not use alltoall communication since running on < 1024 CPUs.
  Threshold for basis singularities not set.
  Default threshold for basis singularities:  0.1000E-04
  partition_type (choice of integration weights) for integrals was not specified.
  | Using a version of the partition function of Stratmann and coworkers ('stratmann_smoother').
  | At each grid point, the set of atoms used to build the partition table is smoothly restricted to
  | only those atoms whose free-atom density would be non-zero at that grid point.
  Partitioning for Hartree potential was not defined. Using partition_type for integrals.
  | Adjusted default value of keyword multip_moments_threshold to:       0.10000000E-11
  | This value may affect high angular momentum components of the Hartree potential in periodic systems.
  No q(lm)/r^(l+1) cutoff set for long-range Hartree potential.
  | Using default value of  0.100000E-09 .
  | Verify using the multipole_threshold keyword.
  Defaulting to new monopole extrapolation.
  Density update method: automatic selection selected.
  Geometry relaxation: A file "geometry.in.next_step" is written out by default after each step.
  | This file contains the geometry of the current relaxation step as well as
  | the current Hessian matrix needed to restart the relaxation algorithm.
  | If you do not want part or all of this information, use the keywords
  | "write_restart_geometry" or "hessian_to_restart_geometry" to switch the output off.
------------------------------------------------------------


------------------------------------------------------------
          Reading geometry description geometry.in.
------------------------------------------------------------
  Input structure read successfully.
  The structure contains        3 atoms,  and a total of         10.000 electrons.

  Input geometry:
  | No unit cell requested.
  | Atomic structure:
  |       Atom                x [A]            y [A]            z [A]
  |    1: Species O             0.00000000        0.00000000        0.00000000
  |    2: Species H             0.70700000       -0.70700000        0.00000000
  |    3: Species H            -0.70700000       -0.70700000        0.00000000
  |

  | The smallest distance between any two atoms is         0.99984899 AA.
  |
  | The first atom of this pair is atom number                      1 .
  | The second atom of this pair is atom number                     2 .

  Number of empty states per atom not set in control.in - providing a guess from actual geometry.
  | Total number of empty states used during s.c.f. cycle:        6
  If you use a very high smearing, use empty_states (per atom!) in control.in to increase this value.

  Structure-dependent array size parameters: 
  | Maximum number of distinct radial functions  :        9
  | Maximum number of basis functions            :       24
  | Number of Kohn-Sham states (occupied + empty):       11
------------------------------------------------------------

------------------------------------------------------------
          Preparing all fixed parts of the calculation.
------------------------------------------------------------
  Determining machine precision:
    2.225073858507201E-308
  Setting up grids for atomic and cluster calculations.

  Creating wave function, potential, and density for free atoms.

  Species: H

  List of occupied orbitals and eigenvalues:
    n    l              occ      energy [Ha]    energy [eV]
    1    0           1.0000        -0.237589        -6.4651


  Species: O

  List of occupied orbitals and eigenvalues:
    n    l              occ      energy [Ha]    energy [eV]
    1    0           2.0000       -18.898188      -514.2459
    2    0           2.0000        -0.878505       -23.9053
    2    1           4.0000        -0.331779        -9.0282

  Creating fixed part of basis set: Ionic, confined, hydrogenic.
 
  H                    hydrogenic:
 
  List of hydrogenic basis orbitals: 
    n    l      effective z      eigenvalue [eV]  inner max. [A]     outer max. [A]     outer radius [A]   
    2    0         2.100000       -14.9728           0.193243           1.317208           4.583499
    2    1         3.500000       -41.6669           0.602369           0.602369           3.723403
 
 
  O                    hydrogenic:
 
  List of hydrogenic basis orbitals: 
    n    l      effective z      eigenvalue [eV]  inner max. [A]     outer max. [A]     outer radius [A]   
    2    1         1.800000       -10.9749           1.164242           1.164242           4.578029
    3    2         7.600000       -87.3180           0.624125           0.624125           3.251020
    3    0         6.400000       -61.9207           0.061167           1.081902           4.001998
 

  Adding cutoff potential to free-atom effective potential.
  Creating atomic-like basis functions for current effective potential.

  Species H                   :

  List of atomic basis orbitals and eigenvalues:
    n    l      energy [Ha]    energy [eV]    outer radius [A]
    1    0        -0.237589        -6.4651       4.527807


  Species O                   :

  List of atomic basis orbitals and eigenvalues:
    n    l      energy [Ha]    energy [eV]    outer radius [A]
    1    0       -18.898188      -514.2459       1.415765
    2    0        -0.878505       -23.9053       4.413171
    2    1        -0.331779        -9.0282       4.522403

  Assembling full basis from fixed parts.
  | Species H :   atomic orbital   1 s accepted.
  | Species H :    hydro orbital   2 s accepted.
  | Species H :    hydro orbital   2 p accepted.
  | Species O :   atomic orbital   1 s accepted.
  | Species O :    hydro orbital   3 s accepted.
  | Species O :   atomic orbital   2 s accepted.
  | Species O :   atomic orbital   2 p accepted.
  | Species O :    hydro orbital   2 p accepted.
  | Species O :    hydro orbital   3 d accepted.
 
  Basis size parameters after reduction:
  | Total number of radial functions:        9
  | Total number of basis functions :       24
 
  Per-task memory consumption for arrays in subroutine allocate_ext:
  |           2.249332MB.
  Testing on-site integration grid accuracy.
  |  Species  Function  <phi|h_atom|phi> (log., in eV)  <phi|h_atom|phi> (rad., in eV)
           1        1                 -6.4663192853                 -6.4651273558
           1        2                 13.7111246313                 13.7170609718
           1        3                 25.2673269279                 25.2674696378
           2        4               -514.2458688638               -514.2457643834
           2        5                 15.1795651126                 15.1795290741
           2        6                -21.5359799773                -21.5360846185
           2        7                 -9.0283069236                 -9.0284644067
           2        8                  8.3027758563                  8.2834874195
           2        9                 45.8339351984                 45.8338762260

  Preparing densities etc. for the partition functions (integrals / Hartree potential).

  Preparations completed.
  max(cpu_time)          :      0.083 s.
  Wall clock time (cpu1) :      0.088 s.
------------------------------------------------------------

------------------------------------------------------------
          Begin self-consistency loop: Initialization.

          Date     :  20171222, Time     :  232806.687
------------------------------------------------------------

  Initializing index lists of integration centers etc. from given atomic structure:
  | Number of centers in hartree potential         :         3
  | Number of centers in hartree multipole         :         3
  | Number of centers in electron density summation:         3
  | Number of centers in basis integrals           :         3
  | Number of centers in integrals                 :         3
  | Number of centers in hamiltonian               :         3
  Initializing relaxation algorithms.
  * Using 4 tasks for Scalapack Eigenvalue solver.
  Detailed listing of tasks and assigned k-points:
  (for non-periodic systems, the "k-point" denotes an internal label only)
   Task     0 k-point     1 on egr-vwb3-mbp2.netgear.com
   Task     1 k-point     1 on egr-vwb3-mbp2.netgear.com
   Task     2 k-point     1 on egr-vwb3-mbp2.netgear.com
   Task     3 k-point     1 on egr-vwb3-mbp2.netgear.com
  Tasks:     4 split into      2 X      2 BLACS grid
  Calculating block size based on n_basis =           24  max_nprow =            2  max_npcol =            2
  ScaLAPACK block size set to:            8
  Allocating        0.002 MB for ovlp
  Allocating        0.002 MB for ham
  Allocating        0.002 MB for eigenvec
  Required Scalapack workspace - INTEGER:            1  REAL:             1
  Partitioning the integration grid into batches with parallel hashing+maxmin method.
  | Number of batches:      248
  | Maximal batch size:     101
  | Minimal batch size:      49
  | Average batch size:      64.210
  | Standard deviation of batch sizes:       9.281

  Integration load balanced across     4 MPI tasks.
  Work distribution over tasks is as follows:
  Task     0 has       3947 integration points.
  Task     1 has       3986 integration points.
  Task     2 has       3984 integration points.
  Task     3 has       4007 integration points.
  Initializing partition tables, free-atom densities, potentials, etc. across the integration grid (initialize_grid_storage).
  | initialize_grid_storage: Actual outermost partition radius vs. multipole_radius_free
  | (-- VB: in principle, multipole_radius_free should be larger, hence this output)
  | Species        1: Confinement radius =              4.999999999999999 AA, multipole_radius_free =              5.054417573612229 AA.
  | Species        1: outer_partition_radius set to              5.054417573612229 AA .
  | Species        2: Confinement radius =              4.999999999999999 AA, multipole_radius_free =              5.048384829883283 AA.
  | Species        2: outer_partition_radius set to              5.048384829883283 AA .
  | Original list of interatomic distances with           3 x          3 entries is created.
  | Net number of integration points:    15924
  | of which are non-zero points    :    14516
  Renormalizing the initial density to the exact electron count on the 3D integration grid.
  | Initial density: Formal number of electrons (from input files) :      10.0000000000
  | Integrated number of electrons on 3D grid     :       9.9999492619
  | Charge integration error                      :      -0.0000507381
  | Normalization factor for density and gradient :       1.0000050738
  Obtaining max. number of non-zero basis functions in each batch (get_n_compute_maxes).
  | Maximal number of non-zero basis functions:       24 in task     0
  | Maximal number of non-zero basis functions:       24 in task     1
  | Maximal number of non-zero basis functions:       24 in task     2
  | Maximal number of non-zero basis functions:       24 in task     3
  Selecting the method for density update.
  Loop over occupied states selected for charge density update.
  Allocating        0.002 MB for KS_eigenvector
  Integrating Hamiltonian matrix: batch-based integration.
  Time summed over all CPUs for integration: real work        0.030 s, elapsed        0.031 s
  Integrating overlap matrix.
  Time summed over all CPUs for integration: real work        0.011 s, elapsed        0.012 s
  Deallocating overlap matrix.

  Updating Kohn-Sham eigenvalues and eigenvectors using ELSI and the ELPA eigensolver.
  ELPA settings:
  | ELPA solver          1
  | Time full => band           :     0.000 s
  | Time band => tridiagonal    :     0.000 s
  | Time solve tridiagonal      :     0.000 s
  Overlap matrix is nonsingular
  | Lowest eigenvalue of overlap  :  0.20E-01
  | Highest eigenvalue of overlap :  0.27E+01
  Finished singularity check of overlap matrix
  | Time :     0.001 s
  Finished Cholesky decomposition
  | Time :     0.000 s
  Finished transformation to standard eigenproblem
  | Time :     0.000 s
  Starting ELPA eigensolver
  | Time full => tridiagonal    :     0.000 s
  | Time solve tridiagonal      :     0.000 s
  | Time ev tridiagonal => full :     0.000 s
  Finished solving standard eigenproblem
  | Time :     0.001 s
  Finished back-transformation of eigenvectors
  | Time :     0.000 s

  Obtaining occupation numbers and chemical potential using ELSI.
  | Chemical potential (Fermi level):    -9.80869355eV
  Writing Kohn-Sham eigenvalues.

  State    Occupation    Eigenvalue [Ha]    Eigenvalue [eV]
      1       2.00000         -18.992379         -516.80894
      2       2.00000          -1.082022          -29.44330
      3       2.00000          -0.580291          -15.79051
      4       2.00000          -0.520660          -14.16787
      5       2.00000          -0.427443          -11.63133
      6       0.00000          -0.057132           -1.55465
      7       0.00000           0.021894            0.59576
      8       0.00000           0.212375            5.77901
      9       0.00000           0.252333            6.86633
     10       0.00000           0.296602            8.07094
     11       0.00000           0.555861           15.12574

  Highest occupied state (VBM) at    -11.63132776 eV
  | Occupation number:      2.00000000

  Lowest unoccupied state (CBM) at    -1.55464978 eV
  | Occupation number:      0.00000000

  Overall HOMO-LUMO gap:     10.07667798 eV.
  Calculating total energy contributions from superposition of free atom densities.

  Total energy components:
  | Sum of eigenvalues            :         -43.20558980 Ha       -1175.68391668 eV
  | XC energy correction          :          -9.00388265 Ha        -245.00811291 eV
  | XC potential correction       :          11.57665952 Ha         315.01693336 eV
  | Free-atom electrostatic energy:         -35.81296446 Ha        -974.52034610 eV
  | Hartree energy correction     :           0.00000000 Ha           0.00000000 eV
  | Entropy correction            :           0.00000000 Ha           0.00000000 eV
  | ---------------------------
  | Total energy                  :         -76.44577740 Ha       -2080.19544233 eV
  | Total energy, T -> 0          :         -76.44577740 Ha       -2080.19544233 eV  <-- do not rely on this value for anything but (periodic) metals
  | Electronic free energy        :         -76.44577740 Ha       -2080.19544233 eV

  Derived energy quantities:
  | Kinetic energy                :          75.52663686 Ha        2055.18435546 eV
  | Electrostatic energy          :        -142.96853160 Ha       -3890.37168488 eV
  | Energy correction for multipole
  | error in Hartree potential    :           0.00000000 Ha           0.00000000 eV
  | Sum of eigenvalues per atom                           :        -391.89463889 eV
  | Total energy (T->0) per atom                          :        -693.39848078 eV  <-- do not rely on this value for anything but (periodic) metals
  | Electronic free energy per atom                       :        -693.39848078 eV
  Initialize hartree_potential_storage
  Max. number of atoms included in rho_multipole:            3

  End scf initialization - timings             :  max(cpu_time)    wall_clock(cpu1)
  | Time for scf. initialization               :        0.031 s           0.032 s
  | Boundary condition initialization          :        0.000 s           0.000 s
  | Relaxation initialization                  :        0.000 s           0.001 s
  | Integration                                :        0.011 s           0.011 s
  | Solution of K.-S. eqns.                    :        0.002 s           0.003 s
  | Grid partitioning                          :        0.007 s           0.007 s
  | Preloading free-atom quantities on grid    :        0.001 s           0.001 s
  | Free-atom superposition energy             :        0.002 s           0.003 s
  | Total energy evaluation                    :        0.000 s           0.000 s

  Partial memory accounting:
  | Current value for overall tracked memory usage on task 0  :           0.011 MB
  | Peak value for overall tracked memory usage on task 0     :           0.077 MB after allocating wave
  | Largest tracked array allocation on task 0 so far         :           0.019 MB  when allocating H_times_psi
  Note:  These values currently only include a subset of arrays which are explicitly tracked.
  The "true" memory usage will be greater.
------------------------------------------------------------

------------------------------------------------------------
          Begin self-consistency iteration #    1

  Date     :  20171222, Time     :  232806.719
------------------------------------------------------------
  Evaluating new KS density.
  Integration grid: deviation in total charge (<rho> - N_e) =  -1.776357E-15
  Pulay mixing of updated and previous charge densities.

  Evaluating partitioned Hartree potential by multipole expansion.
  | Analytical far-field extrapolation by fixed multipoles:
  | Hartree multipole sum: apparent total charge =  -0.625392E-04
  Summing up the Hartree potential.
  Time summed over all CPUs for potential: real work        0.027 s, elapsed        0.029 s
  | RMS charge density error from multipole expansion :   0.334247E-03

  Integrating Hamiltonian matrix: batch-based integration.
  Time summed over all CPUs for integration: real work        0.027 s, elapsed        0.028 s

  Updating Kohn-Sham eigenvalues and eigenvectors using ELSI and the ELPA eigensolver.
  ELPA settings:
  | ELPA solver          1
  Finished transformation to standard eigenproblem
  | Time :     0.000 s
  Starting ELPA eigensolver
  | Time full => tridiagonal    :     0.000 s
  | Time solve tridiagonal      :     0.000 s
  | Time ev tridiagonal => full :     0.000 s
  Finished solving standard eigenproblem
  | Time :     0.000 s
  Finished back-transformation of eigenvectors
  | Time :     0.000 s

  Obtaining occupation numbers and chemical potential using ELSI.
  | Chemical potential (Fermi level):    -9.62218745eV
  Writing Kohn-Sham eigenvalues.

  State    Occupation    Eigenvalue [Ha]    Eigenvalue [eV]
      1       2.00000         -18.954876         -515.78841
      2       2.00000          -1.063819          -28.94799
      3       2.00000          -0.564398          -15.35806
      4       2.00000          -0.502217          -13.66601
      5       2.00000          -0.407751          -11.09546
      6       0.00000          -0.052641           -1.43243
      7       0.00000           0.028019            0.76245
      8       0.00000           0.220672            6.00480
      9       0.00000           0.261077            7.10427
     10       0.00000           0.302616            8.23459
     11       0.00000           0.561208           15.27123

  Highest occupied state (VBM) at    -11.09546226 eV
  | Occupation number:      2.00000000

  Lowest unoccupied state (CBM) at    -1.43242830 eV
  | Occupation number:      0.00000000

  Overall HOMO-LUMO gap:      9.66303397 eV.

  Total energy components:
  | Sum of eigenvalues            :         -42.98612085 Ha       -1169.71186265 eV
  | XC energy correction          :          -9.02825177 Ha        -245.67123017 eV
  | XC potential correction       :          11.60860268 Ha         315.88615112 eV
  | Free-atom electrostatic energy:         -35.81296446 Ha        -974.52034610 eV
  | Hartree energy correction     :          -0.21074285 Ha          -5.73460485 eV
  | Entropy correction            :           0.00000000 Ha           0.00000000 eV
  | ---------------------------
  | Total energy                  :         -76.42947725 Ha       -2079.75189265 eV
  | Total energy, T -> 0          :         -76.42947725 Ha       -2079.75189265 eV  <-- do not rely on this value for anything but (periodic) metals
  | Electronic free energy        :         -76.42947725 Ha       -2079.75189265 eV

  Derived energy quantities:
  | Kinetic energy                :          75.67401929 Ha        2059.19483553 eV
  | Electrostatic energy          :        -143.07524478 Ha       -3893.27549801 eV
  | Energy correction for multipole
  | error in Hartree potential    :           0.00006820 Ha           0.00185588 eV
  | Sum of eigenvalues per atom                           :        -389.90395422 eV
  | Total energy (T->0) per atom                          :        -693.25063088 eV  <-- do not rely on this value for anything but (periodic) metals
  | Electronic free energy per atom                       :        -693.25063088 eV

  Self-consistency convergence accuracy:
  | Change of charge density      :  0.2935E+00
  | Change of sum of eigenvalues  :  0.5972E+01 eV
  | Change of total energy        :  0.4435E+00 eV

  End self-consistency iteration #     1       :  max(cpu_time)    wall_clock(cpu1)
  | Time for this iteration                    :        0.022 s           0.024 s
  | Charge density update                      :        0.006 s           0.007 s
  | Density mixing                             :        0.000 s           0.000 s
  | Hartree multipole update                   :        0.001 s           0.001 s
  | Hartree multipole summation                :        0.006 s           0.008 s
  | Integration                                :        0.007 s           0.007 s
  | Solution of K.-S. eqns.                    :        0.001 s           0.001 s
  | Total energy evaluation                    :        0.000 s           0.000 s

  Partial memory accounting:
  | Current value for overall tracked memory usage on task 0  :           0.011 MB
  | Peak value for overall tracked memory usage on task 0     :           0.089 MB after allocating gradient_basis_wave
  | Largest tracked array allocation on task 0 so far         :           0.058 MB  when allocating gradient_basis_wave
  Note:  These values currently only include a subset of arrays which are explicitly tracked.
  The "true" memory usage will be greater.
------------------------------------------------------------

------------------------------------------------------------
          Begin self-consistency iteration #    2

  Date     :  20171222, Time     :  232806.743
------------------------------------------------------------
  Evaluating new KS density.
  Integration grid: deviation in total charge (<rho> - N_e) =  -1.065814E-14
  Pulay mixing of updated and previous charge densities.

  Evaluating partitioned Hartree potential by multipole expansion.
  | Analytical far-field extrapolation by fixed multipoles:
  | Hartree multipole sum: apparent total charge =  -0.130880E-03
  Summing up the Hartree potential.
  Time summed over all CPUs for potential: real work        0.017 s, elapsed        0.017 s
  | RMS charge density error from multipole expansion :   0.226823E-02

  Integrating Hamiltonian matrix: batch-based integration.
  Time summed over all CPUs for integration: real work        0.026 s, elapsed        0.026 s

  Updating Kohn-Sham eigenvalues and eigenvectors using ELSI and the ELPA eigensolver.
  ELPA settings:
  | ELPA solver          1
  Finished transformation to standard eigenproblem
  | Time :     0.000 s
  Starting ELPA eigensolver
  | Time full => tridiagonal    :     0.000 s
  | Time solve tridiagonal      :     0.000 s
  | Time ev tridiagonal => full :     0.000 s
  Finished solving standard eigenproblem
  | Time :     0.000 s
  Finished back-transformation of eigenvectors
  | Time :     0.000 s

  Obtaining occupation numbers and chemical potential using ELSI.
  | Chemical potential (Fermi level):    -4.44894249eV
  Highest occupied state (VBM) at     -8.23172244 eV
  | Occupation number:      2.00000000

  Lowest unoccupied state (CBM) at    -0.72110827 eV
  | Occupation number:      0.00000000

  Overall HOMO-LUMO gap:      7.51061417 eV.

  Checking to see if s.c.f. parameters should be adjusted.
  The system likely has a gap. Increased the default Pulay mixing parameter (charge_mix_param). Value:   0.200000 .
  Kept the default occupation width. Value:   0.010000 eV.

  Total energy components:
  | Sum of eigenvalues            :         -41.81099068 Ha       -1137.73494361 eV
  | XC energy correction          :          -9.16523045 Ha        -249.39860981 eV
  | XC potential correction       :          11.78813754 Ha         320.77154308 eV
  | Free-atom electrostatic energy:         -35.81296446 Ha        -974.52034610 eV
  | Hartree energy correction     :          -1.38143824 Ha         -37.59084711 eV
  | Entropy correction            :           0.00000000 Ha           0.00000000 eV
  | ---------------------------
  | Total energy                  :         -76.38248629 Ha       -2078.47320355 eV
  | Total energy, T -> 0          :         -76.38248629 Ha       -2078.47320355 eV  <-- do not rely on this value for anything but (periodic) metals
  | Electronic free energy        :         -76.38248629 Ha       -2078.47320355 eV

  Derived energy quantities:
  | Kinetic energy                :          76.39375308 Ha        2078.77978858 eV
  | Electrostatic energy          :        -143.61100893 Ha       -3907.85438232 eV
  | Energy correction for multipole
  | error in Hartree potential    :           0.00025466 Ha           0.00692957 eV
  | Sum of eigenvalues per atom                           :        -379.24498120 eV
  | Total energy (T->0) per atom                          :        -692.82440118 eV  <-- do not rely on this value for anything but (periodic) metals
  | Electronic free energy per atom                       :        -692.82440118 eV

  Self-consistency convergence accuracy:
  | Change of charge density      :  0.2565E+00
  | Change of sum of eigenvalues  :  0.3198E+02 eV
  | Change of total energy        :  0.1279E+01 eV

  End self-consistency iteration #     2       :  max(cpu_time)    wall_clock(cpu1)
  | Time for this iteration                    :        0.019 s           0.020 s
  | Charge density update                      :        0.005 s           0.005 s
  | Density mixing                             :        0.001 s           0.000 s
  | Hartree multipole update                   :        0.001 s           0.001 s
  | Hartree multipole summation                :        0.005 s           0.005 s
  | Integration                                :        0.007 s           0.007 s
  | Solution of K.-S. eqns.                    :        0.001 s           0.000 s
  | Total energy evaluation                    :        0.000 s           0.000 s

  Partial memory accounting:
  | Current value for overall tracked memory usage on task 0  :           0.012 MB
  | Peak value for overall tracked memory usage on task 0     :           0.089 MB after allocating gradient_basis_wave
  | Largest tracked array allocation on task 0 so far         :           0.058 MB  when allocating gradient_basis_wave
  Note:  These values currently only include a subset of arrays which are explicitly tracked.
  The "true" memory usage will be greater.
------------------------------------------------------------

------------------------------------------------------------
          Begin self-consistency iteration #    3

  Date     :  20171222, Time     :  232806.763
------------------------------------------------------------
  Evaluating new KS density.
  Integration grid: deviation in total charge (<rho> - N_e) =   3.552714E-15
  Pulay mixing of updated and previous charge densities.

  Evaluating partitioned Hartree potential by multipole expansion.
  | Analytical far-field extrapolation by fixed multipoles:
  | Hartree multipole sum: apparent total charge =  -0.115719E-03
  Summing up the Hartree potential.
  Time summed over all CPUs for potential: real work        0.024 s, elapsed        0.029 s
  | RMS charge density error from multipole expansion :   0.376233E-02

  Integrating Hamiltonian matrix: batch-based integration.
  Time summed over all CPUs for integration: real work        0.024 s, elapsed        0.025 s

  Updating Kohn-Sham eigenvalues and eigenvectors using ELSI and the ELPA eigensolver.
  ELPA settings:
  | ELPA solver          1
  Finished transformation to standard eigenproblem
  | Time :     0.000 s
  Starting ELPA eigensolver
  | Time full => tridiagonal    :     0.000 s
  | Time solve tridiagonal      :     0.000 s
  | Time ev tridiagonal => full :     0.000 s
  Finished solving standard eigenproblem
  | Time :     0.000 s
  Finished back-transformation of eigenvectors
  | Time :     0.000 s

  Obtaining occupation numbers and chemical potential using ELSI.
  | Chemical potential (Fermi level):    -8.82310551eV
  Highest occupied state (VBM) at     -9.25736779 eV
  | Occupation number:      2.00000000

  Lowest unoccupied state (CBM) at    -0.87032562 eV
  | Occupation number:      0.00000000

  Overall HOMO-LUMO gap:      8.38704217 eV.

  Total energy components:
  | Sum of eigenvalues            :         -42.34272191 Ha       -1152.20408658 eV
  | XC energy correction          :          -9.10264016 Ha        -247.69544139 eV
  | XC potential correction       :          11.70558813 Ha         318.52525939 eV
  | Free-atom electrostatic energy:         -35.81296446 Ha        -974.52034610 eV
  | Hartree energy correction     :          -0.84166760 Ha         -22.90294061 eV
  | Entropy correction            :           0.00000000 Ha           0.00000000 eV
  | ---------------------------
  | Total energy                  :         -76.39440600 Ha       -2078.79755530 eV
  | Total energy, T -> 0          :         -76.39440600 Ha       -2078.79755530 eV  <-- do not rely on this value for anything but (periodic) metals
  | Electronic free energy        :         -76.39440600 Ha       -2078.79755530 eV

  Derived energy quantities:
  | Kinetic energy                :          75.76839352 Ha        2061.76288904 eV
  | Electrostatic energy          :        -143.06015936 Ha       -3892.86500295 eV
  | Energy correction for multipole
  | error in Hartree potential    :          -0.00179833 Ha          -0.04893503 eV
  | Sum of eigenvalues per atom                           :        -384.06802886 eV
  | Total energy (T->0) per atom                          :        -692.93251843 eV  <-- do not rely on this value for anything but (periodic) metals
  | Electronic free energy per atom                       :        -692.93251843 eV

  Self-consistency convergence accuracy:
  | Change of charge density      :  0.1197E+00
  | Change of sum of eigenvalues  : -0.1447E+02 eV
  | Change of total energy        : -0.3244E+00 eV

  End self-consistency iteration #     3       :  max(cpu_time)    wall_clock(cpu1)
  | Time for this iteration                    :        0.019 s           0.021 s
  | Charge density update                      :        0.005 s           0.004 s
  | Density mixing                             :        0.001 s           0.001 s
  | Hartree multipole update                   :        0.001 s           0.001 s
  | Hartree multipole summation                :        0.006 s           0.008 s
  | Integration                                :        0.006 s           0.006 s
  | Solution of K.-S. eqns.                    :        0.001 s           0.001 s
  | Total energy evaluation                    :        0.000 s           0.000 s

  Partial memory accounting:
  | Current value for overall tracked memory usage on task 0  :           0.012 MB
  | Peak value for overall tracked memory usage on task 0     :           0.089 MB after allocating gradient_basis_wave
  | Largest tracked array allocation on task 0 so far         :           0.058 MB  when allocating gradient_basis_wave
  Note:  These values currently only include a subset of arrays which are explicitly tracked.
  The "true" memory usage will be greater.
------------------------------------------------------------

------------------------------------------------------------
          Begin self-consistency iteration #    4

  Date     :  20171222, Time     :  232806.784
------------------------------------------------------------
  Evaluating new KS density.
  Integration grid: deviation in total charge (<rho> - N_e) =  -3.552714E-15
  Pulay mixing of updated and previous charge densities.

  Evaluating partitioned Hartree potential by multipole expansion.
  | Analytical far-field extrapolation by fixed multipoles:
  | Hartree multipole sum: apparent total charge =  -0.169368E-03
  Summing up the Hartree potential.
  Time summed over all CPUs for potential: real work        0.014 s, elapsed        0.015 s
  | RMS charge density error from multipole expansion :   0.597023E-02

  Integrating Hamiltonian matrix: batch-based integration.
  Time summed over all CPUs for integration: real work        0.028 s, elapsed        0.031 s

  Updating Kohn-Sham eigenvalues and eigenvectors using ELSI and the ELPA eigensolver.
  ELPA settings:
  | ELPA solver          1
  Finished transformation to standard eigenproblem
  | Time :     0.000 s
  Starting ELPA eigensolver
  | Time full => tridiagonal    :     0.000 s
  | Time solve tridiagonal      :     0.000 s
  | Time ev tridiagonal => full :     0.000 s
  Finished solving standard eigenproblem
  | Time :     0.000 s
  Finished back-transformation of eigenvectors
  | Time :     0.000 s

  Obtaining occupation numbers and chemical potential using ELSI.
  | Chemical potential (Fermi level):    -3.91468451eV
  Highest occupied state (VBM) at     -7.49746322 eV
  | Occupation number:      2.00000000

  Lowest unoccupied state (CBM) at    -0.33213532 eV
  | Occupation number:      0.00000000

  Overall HOMO-LUMO gap:      7.16532790 eV.

  Total energy components:
  | Sum of eigenvalues            :         -41.67172517 Ha       -1133.94533625 eV
  | XC energy correction          :          -9.18769377 Ha        -250.00986778 eV
  | XC potential correction       :          11.81689873 Ha         321.55417496 eV
  | Free-atom electrostatic energy:         -35.81296446 Ha        -974.52034610 eV
  | Hartree energy correction     :          -1.52280862 Ha         -41.43773082 eV
  | Entropy correction            :           0.00000000 Ha           0.00000000 eV
  | ---------------------------
  | Total energy                  :         -76.37829328 Ha       -2078.35910599 eV
  | Total energy, T -> 0          :         -76.37829328 Ha       -2078.35910599 eV  <-- do not rely on this value for anything but (periodic) metals
  | Electronic free energy        :         -76.37829328 Ha       -2078.35910599 eV

  Derived energy quantities:
  | Kinetic energy                :          76.00044210 Ha        2068.07725221 eV
  | Electrostatic energy          :        -143.19104162 Ha       -3896.42649042 eV
  | Energy correction for multipole
  | error in Hartree potential    :          -0.00279190 Ha          -0.07597136 eV
  | Sum of eigenvalues per atom                           :        -377.98177875 eV
  | Total energy (T->0) per atom                          :        -692.78636866 eV  <-- do not rely on this value for anything but (periodic) metals
  | Electronic free energy per atom                       :        -692.78636866 eV

  Self-consistency convergence accuracy:
  | Change of charge density      :  0.1483E+00
  | Change of sum of eigenvalues  :  0.1826E+02 eV
  | Change of total energy        :  0.4384E+00 eV

  End self-consistency iteration #     4       :  max(cpu_time)    wall_clock(cpu1)
  | Time for this iteration                    :        0.018 s           0.019 s
  | Charge density update                      :        0.004 s           0.004 s
  | Density mixing                             :        0.001 s           0.000 s
  | Hartree multipole update                   :        0.001 s           0.001 s
  | Hartree multipole summation                :        0.004 s           0.004 s
  | Integration                                :        0.008 s           0.008 s
  | Solution of K.-S. eqns.                    :        0.001 s           0.001 s
  | Total energy evaluation                    :        0.000 s           0.000 s

  Partial memory accounting:
  | Current value for overall tracked memory usage on task 0  :           0.012 MB
  | Peak value for overall tracked memory usage on task 0     :           0.089 MB after allocating gradient_basis_wave
  | Largest tracked array allocation on task 0 so far         :           0.058 MB  when allocating gradient_basis_wave
  Note:  These values currently only include a subset of arrays which are explicitly tracked.
  The "true" memory usage will be greater.
------------------------------------------------------------

------------------------------------------------------------
          Begin self-consistency iteration #    5

  Date     :  20171222, Time     :  232806.803
------------------------------------------------------------
  Evaluating new KS density.
  Integration grid: deviation in total charge (<rho> - N_e) =   0.000000E+00
  Pulay mixing of updated and previous charge densities.

  Evaluating partitioned Hartree potential by multipole expansion.
  | Analytical far-field extrapolation by fixed multipoles:
  | Hartree multipole sum: apparent total charge =  -0.167266E-03
  Summing up the Hartree potential.
  Time summed over all CPUs for potential: real work        0.022 s, elapsed        0.025 s
  | RMS charge density error from multipole expansion :   0.596226E-02

  Integrating Hamiltonian matrix: batch-based integration.
  Time summed over all CPUs for integration: real work        0.035 s, elapsed        0.039 s

  Updating Kohn-Sham eigenvalues and eigenvectors using ELSI and the ELPA eigensolver.
  ELPA settings:
  | ELPA solver          1
  Finished transformation to standard eigenproblem
  | Time :     0.000 s
  Starting ELPA eigensolver
  | Time full => tridiagonal    :     0.000 s
  | Time solve tridiagonal      :     0.000 s
  | Time ev tridiagonal => full :     0.000 s
  Finished solving standard eigenproblem
  | Time :     0.001 s
  Finished back-transformation of eigenvectors
  | Time :     0.000 s

  Obtaining occupation numbers and chemical potential using ELSI.
  | Chemical potential (Fermi level):    -3.92411760eV
  Highest occupied state (VBM) at     -7.51629631 eV
  | Occupation number:      2.00000000

  Lowest unoccupied state (CBM) at    -0.33887485 eV
  | Occupation number:      0.00000000

  Overall HOMO-LUMO gap:      7.17742146 eV.

  Total energy components:
  | Sum of eigenvalues            :         -41.67910937 Ha       -1134.14627056 eV
  | XC energy correction          :          -9.18677944 Ha        -249.98498774 eV
  | XC potential correction       :          11.81569008 Ha         321.52128580 eV
  | Free-atom electrostatic energy:         -35.81296446 Ha        -974.52034610 eV
  | Hartree energy correction     :          -1.51518765 Ha         -41.23035369 eV
  | Entropy correction            :           0.00000000 Ha           0.00000000 eV
  | ---------------------------
  | Total energy                  :         -76.37835084 Ha       -2078.36067229 eV
  | Total energy, T -> 0          :         -76.37835084 Ha       -2078.36067229 eV  <-- do not rely on this value for anything but (periodic) metals
  | Electronic free energy        :         -76.37835084 Ha       -2078.36067229 eV

  Derived energy quantities:
  | Kinetic energy                :          75.99856217 Ha        2068.02609672 eV
  | Electrostatic energy          :        -143.19013357 Ha       -3896.40178127 eV
  | Energy correction for multipole
  | error in Hartree potential    :          -0.00276526 Ha          -0.07524660 eV
  | Sum of eigenvalues per atom                           :        -378.04875685 eV
  | Total energy (T->0) per atom                          :        -692.78689076 eV  <-- do not rely on this value for anything but (periodic) metals
  | Electronic free energy per atom                       :        -692.78689076 eV

  Self-consistency convergence accuracy:
  | Change of charge density      :  0.2620E-01
  | Change of sum of eigenvalues  : -0.2009E+00 eV
  | Change of total energy        : -0.1566E-02 eV

  End self-consistency iteration #     5       :  max(cpu_time)    wall_clock(cpu1)
  | Time for this iteration                    :        0.023 s           0.026 s
  | Charge density update                      :        0.006 s           0.006 s
  | Density mixing                             :        0.001 s           0.001 s
  | Hartree multipole update                   :        0.001 s           0.001 s
  | Hartree multipole summation                :        0.007 s           0.007 s
  | Integration                                :        0.008 s           0.010 s
  | Solution of K.-S. eqns.                    :        0.001 s           0.001 s
  | Total energy evaluation                    :        0.000 s           0.000 s

  Partial memory accounting:
  | Current value for overall tracked memory usage on task 0  :           0.012 MB
  | Peak value for overall tracked memory usage on task 0     :           0.089 MB after allocating gradient_basis_wave
  | Largest tracked array allocation on task 0 so far         :           0.058 MB  when allocating gradient_basis_wave
  Note:  These values currently only include a subset of arrays which are explicitly tracked.
  The "true" memory usage will be greater.
------------------------------------------------------------

------------------------------------------------------------
          Begin self-consistency iteration #    6

  Date     :  20171222, Time     :  232806.829
------------------------------------------------------------
  Evaluating new KS density.
  Integration grid: deviation in total charge (<rho> - N_e) =  -7.105427E-15
  Pulay mixing of updated and previous charge densities.

  Evaluating partitioned Hartree potential by multipole expansion.
  | Analytical far-field extrapolation by fixed multipoles:
  | Hartree multipole sum: apparent total charge =  -0.202749E-03
  Summing up the Hartree potential.
  Time summed over all CPUs for potential: real work        0.019 s, elapsed        0.027 s
  | RMS charge density error from multipole expansion :   0.630266E-02

  Integrating Hamiltonian matrix: batch-based integration.
  Time summed over all CPUs for integration: real work        0.027 s, elapsed        0.029 s

  Updating Kohn-Sham eigenvalues and eigenvectors using ELSI and the ELPA eigensolver.
  ELPA settings:
  | ELPA solver          1
  Finished transformation to standard eigenproblem
  | Time :     0.000 s
  Starting ELPA eigensolver
  | Time full => tridiagonal    :     0.000 s
  | Time solve tridiagonal      :     0.000 s
  | Time ev tridiagonal => full :     0.000 s
  Finished solving standard eigenproblem
  | Time :     0.000 s
  Finished back-transformation of eigenvectors
  | Time :     0.000 s

  Obtaining occupation numbers and chemical potential using ELSI.
  | Chemical potential (Fermi level):    -3.72669114eV
  Highest occupied state (VBM) at     -7.13328483 eV
  | Occupation number:      2.00000000

  Lowest unoccupied state (CBM) at    -0.19720613 eV
  | Occupation number:      0.00000000

  Overall HOMO-LUMO gap:      6.93607870 eV.

  Total energy components:
  | Sum of eigenvalues            :         -41.53334357 Ha       -1130.17978153 eV
  | XC energy correction          :          -9.20550283 Ha        -250.49447695 eV
  | XC potential correction       :          11.84037415 Ha         322.19297352 eV
  | Free-atom electrostatic energy:         -35.81296446 Ha        -974.52034610 eV
  | Hartree energy correction     :          -1.66627952 Ha         -45.34177277 eV
  | Entropy correction            :           0.00000000 Ha           0.00000000 eV
  | ---------------------------
  | Total energy                  :         -76.37771624 Ha       -2078.34340383 eV
  | Total energy, T -> 0          :         -76.37771624 Ha       -2078.34340383 eV  <-- do not rely on this value for anything but (periodic) metals
  | Electronic free energy        :         -76.37771624 Ha       -2078.34340383 eV

  Derived energy quantities:
  | Kinetic energy                :          76.02596591 Ha        2068.77179047 eV
  | Electrostatic energy          :        -143.19817933 Ha       -3896.62071735 eV
  | Energy correction for multipole
  | error in Hartree potential    :          -0.00329537 Ha          -0.08967169 eV
  | Sum of eigenvalues per atom                           :        -376.72659384 eV
  | Total energy (T->0) per atom                          :        -692.78113461 eV  <-- do not rely on this value for anything but (periodic) metals
  | Electronic free energy per atom                       :        -692.78113461 eV

  Self-consistency convergence accuracy:
  | Change of charge density      :  0.2746E-01
  | Change of sum of eigenvalues  :  0.3966E+01 eV
  | Change of total energy        :  0.1727E-01 eV

  End self-consistency iteration #     6       :  max(cpu_time)    wall_clock(cpu1)
  | Time for this iteration                    :        0.024 s           0.025 s
  | Charge density update                      :        0.007 s           0.007 s
  | Density mixing                             :        0.002 s           0.002 s
  | Hartree multipole update                   :        0.001 s           0.001 s
  | Hartree multipole summation                :        0.007 s           0.007 s
  | Integration                                :        0.007 s           0.007 s
  | Solution of K.-S. eqns.                    :        0.000 s           0.001 s
  | Total energy evaluation                    :        0.000 s           0.000 s

  Partial memory accounting:
  | Current value for overall tracked memory usage on task 0  :           0.012 MB
  | Peak value for overall tracked memory usage on task 0     :           0.089 MB after allocating gradient_basis_wave
  | Largest tracked array allocation on task 0 so far         :           0.058 MB  when allocating gradient_basis_wave
  Note:  These values currently only include a subset of arrays which are explicitly tracked.
  The "true" memory usage will be greater.
------------------------------------------------------------

------------------------------------------------------------
          Begin self-consistency iteration #    7

  Date     :  20171222, Time     :  232806.854
------------------------------------------------------------
  Evaluating new KS density.
  Integration grid: deviation in total charge (<rho> - N_e) =   0.000000E+00
  Pulay mixing of updated and previous charge densities.

  Evaluating partitioned Hartree potential by multipole expansion.
  | Analytical far-field extrapolation by fixed multipoles:
  | Hartree multipole sum: apparent total charge =  -0.206305E-03
  Summing up the Hartree potential.
  Time summed over all CPUs for potential: real work        0.032 s, elapsed        0.037 s
  | RMS charge density error from multipole expansion :   0.632161E-02

  Integrating Hamiltonian matrix: batch-based integration.
  Time summed over all CPUs for integration: real work        0.035 s, elapsed        0.043 s

  Updating Kohn-Sham eigenvalues and eigenvectors using ELSI and the ELPA eigensolver.
  ELPA settings:
  | ELPA solver          1
  Finished transformation to standard eigenproblem
  | Time :     0.000 s
  Starting ELPA eigensolver
  | Time full => tridiagonal    :     0.000 s
  | Time solve tridiagonal      :     0.000 s
  | Time ev tridiagonal => full :     0.000 s
  Finished solving standard eigenproblem
  | Time :     0.000 s
  Finished back-transformation of eigenvectors
  | Time :     0.000 s

  Obtaining occupation numbers and chemical potential using ELSI.
  | Chemical potential (Fermi level):    -3.71271112eV
  Highest occupied state (VBM) at     -7.10144159 eV
  | Occupation number:      2.00000000

  Lowest unoccupied state (CBM) at    -0.18694734 eV
  | Occupation number:      0.00000000

  Overall HOMO-LUMO gap:      6.91449425 eV.

  Total energy components:
  | Sum of eigenvalues            :         -41.52117177 Ha       -1129.84857003 eV
  | XC energy correction          :          -9.20701664 Ha        -250.53567001 eV
  | XC potential correction       :          11.84237779 Ha         322.24749555 eV
  | Free-atom electrostatic energy:         -35.81296446 Ha        -974.52034610 eV
  | Hartree energy correction     :          -1.67893416 Ha         -45.68612295 eV
  | Entropy correction            :           0.00000000 Ha           0.00000000 eV
  | ---------------------------
  | Total energy                  :         -76.37770925 Ha       -2078.34321354 eV
  | Total energy, T -> 0          :         -76.37770925 Ha       -2078.34321354 eV  <-- do not rely on this value for anything but (periodic) metals
  | Electronic free energy        :         -76.37770925 Ha       -2078.34321354 eV

  Derived energy quantities:
  | Kinetic energy                :          76.02910548 Ha        2068.85722229 eV
  | Electrostatic energy          :        -143.19979808 Ha       -3896.66476583 eV
  | Energy correction for multipole
  | error in Hartree potential    :          -0.00333773 Ha          -0.09082432 eV
  | Sum of eigenvalues per atom                           :        -376.61619001 eV
  | Total energy (T->0) per atom                          :        -692.78107118 eV  <-- do not rely on this value for anything but (periodic) metals
  | Electronic free energy per atom                       :        -692.78107118 eV

  Self-consistency convergence accuracy:
  | Change of charge density      :  0.3032E-02
  | Change of sum of eigenvalues  :  0.3312E+00 eV
  | Change of total energy        :  0.1903E-03 eV

  End self-consistency iteration #     7       :  max(cpu_time)    wall_clock(cpu1)
  | Time for this iteration                    :        0.030 s           0.032 s
  | Charge density update                      :        0.007 s           0.007 s
  | Density mixing                             :        0.002 s           0.003 s
  | Hartree multipole update                   :        0.001 s           0.001 s
  | Hartree multipole summation                :        0.008 s           0.009 s
  | Integration                                :        0.011 s           0.011 s
  | Solution of K.-S. eqns.                    :        0.001 s           0.001 s
  | Total energy evaluation                    :        0.000 s           0.000 s

  Partial memory accounting:
  | Current value for overall tracked memory usage on task 0  :           0.012 MB
  | Peak value for overall tracked memory usage on task 0     :           0.089 MB after allocating gradient_basis_wave
  | Largest tracked array allocation on task 0 so far         :           0.058 MB  when allocating gradient_basis_wave
  Note:  These values currently only include a subset of arrays which are explicitly tracked.
  The "true" memory usage will be greater.
------------------------------------------------------------

------------------------------------------------------------
          Begin self-consistency iteration #    8

  Date     :  20171222, Time     :  232806.887
------------------------------------------------------------
  Evaluating new KS density.
  Integration grid: deviation in total charge (<rho> - N_e) =  -5.329071E-15
  Pulay mixing of updated and previous charge densities.

  Evaluating partitioned Hartree potential by multipole expansion.
  | Analytical far-field extrapolation by fixed multipoles:
  | Hartree multipole sum: apparent total charge =  -0.207841E-03
  Summing up the Hartree potential.
  Time summed over all CPUs for potential: real work        0.016 s, elapsed        0.016 s
  | RMS charge density error from multipole expansion :   0.633607E-02

  Integrating Hamiltonian matrix: batch-based integration.
  Time summed over all CPUs for integration: real work        0.026 s, elapsed        0.028 s

  Updating Kohn-Sham eigenvalues and eigenvectors using ELSI and the ELPA eigensolver.
  ELPA settings:
  | ELPA solver          1
  Finished transformation to standard eigenproblem
  | Time :     0.000 s
  Starting ELPA eigensolver
  | Time full => tridiagonal    :     0.000 s
  | Time solve tridiagonal      :     0.000 s
  | Time ev tridiagonal => full :     0.000 s
  Finished solving standard eigenproblem
  | Time :     0.000 s
  Finished back-transformation of eigenvectors
  | Time :     0.000 s

  Obtaining occupation numbers and chemical potential using ELSI.
  | Chemical potential (Fermi level):    -3.70586746eV
  Highest occupied state (VBM) at     -7.09026791 eV
  | Occupation number:      2.00000000

  Lowest unoccupied state (CBM) at    -0.18195561 eV
  | Occupation number:      0.00000000

  Overall HOMO-LUMO gap:      6.90831230 eV.

  Total energy components:
  | Sum of eigenvalues            :         -41.51723720 Ha       -1129.74150476 eV
  | XC energy correction          :          -9.20753924 Ha        -250.54989053 eV
  | XC potential correction       :          11.84306888 Ha         322.26630093 eV
  | Free-atom electrostatic energy:         -35.81296446 Ha        -974.52034610 eV
  | Hartree energy correction     :          -1.68303700 Ha         -45.79776689 eV
  | Entropy correction            :           0.00000000 Ha           0.00000000 eV
  | ---------------------------
  | Total energy                  :         -76.37770902 Ha       -2078.34320735 eV
  | Total energy, T -> 0          :         -76.37770902 Ha       -2078.34320735 eV  <-- do not rely on this value for anything but (periodic) metals
  | Electronic free energy        :         -76.37770902 Ha       -2078.34320735 eV

  Derived energy quantities:
  | Kinetic energy                :          76.02859878 Ha        2068.84343432 eV
  | Electrostatic energy          :        -143.19876856 Ha       -3896.63675114 eV
  | Energy correction for multipole
  | error in Hartree potential    :          -0.00336402 Ha          -0.09153963 eV
  | Sum of eigenvalues per atom                           :        -376.58050159 eV
  | Total energy (T->0) per atom                          :        -692.78106912 eV  <-- do not rely on this value for anything but (periodic) metals
  | Electronic free energy per atom                       :        -692.78106912 eV

  Self-consistency convergence accuracy:
  | Change of charge density      :  0.7119E-03
  | Change of sum of eigenvalues  :  0.1071E+00 eV
  | Change of total energy        :  0.6191E-05 eV

  End self-consistency iteration #     8       :  max(cpu_time)    wall_clock(cpu1)
  | Time for this iteration                    :        0.018 s           0.018 s
  | Charge density update                      :        0.004 s           0.004 s
  | Density mixing                             :        0.001 s           0.001 s
  | Hartree multipole update                   :        0.001 s           0.001 s
  | Hartree multipole summation                :        0.004 s           0.004 s
  | Integration                                :        0.007 s           0.008 s
  | Solution of K.-S. eqns.                    :        0.000 s           0.000 s
  | Total energy evaluation                    :        0.000 s           0.000 s

  Partial memory accounting:
  | Current value for overall tracked memory usage on task 0  :           0.012 MB
  | Peak value for overall tracked memory usage on task 0     :           0.089 MB after allocating gradient_basis_wave
  | Largest tracked array allocation on task 0 so far         :           0.058 MB  when allocating gradient_basis_wave
  Note:  These values currently only include a subset of arrays which are explicitly tracked.
  The "true" memory usage will be greater.
------------------------------------------------------------

------------------------------------------------------------
          Begin self-consistency iteration #    9

  Date     :  20171222, Time     :  232806.905
------------------------------------------------------------
  Evaluating new KS density.
  Integration grid: deviation in total charge (<rho> - N_e) =   1.776357E-15
  Pulay mixing of updated and previous charge densities.

  Evaluating partitioned Hartree potential by multipole expansion.
  | Analytical far-field extrapolation by fixed multipoles:
  | Hartree multipole sum: apparent total charge =  -0.207661E-03
  Summing up the Hartree potential.
  Time summed over all CPUs for potential: real work        0.015 s, elapsed        0.015 s
  | RMS charge density error from multipole expansion :   0.633534E-02

  Integrating Hamiltonian matrix: batch-based integration.
  Time summed over all CPUs for integration: real work        0.023 s, elapsed        0.024 s

  Updating Kohn-Sham eigenvalues and eigenvectors using ELSI and the ELPA eigensolver.
  ELPA settings:
  | ELPA solver          1
  Finished transformation to standard eigenproblem
  | Time :     0.000 s
  Starting ELPA eigensolver
  | Time full => tridiagonal    :     0.000 s
  | Time solve tridiagonal      :     0.000 s
  | Time ev tridiagonal => full :     0.000 s
  Finished solving standard eigenproblem
  | Time :     0.000 s
  Finished back-transformation of eigenvectors
  | Time :     0.000 s

  Obtaining occupation numbers and chemical potential using ELSI.
  | Chemical potential (Fermi level):    -3.70570051eV
  Highest occupied state (VBM) at     -7.08934139 eV
  | Occupation number:      2.00000000

  Lowest unoccupied state (CBM) at    -0.18188313 eV
  | Occupation number:      0.00000000

  Overall HOMO-LUMO gap:      6.90745826 eV.

  Total energy components:
  | Sum of eigenvalues            :         -41.51673254 Ha       -1129.72777231 eV
  | XC energy correction          :          -9.20760405 Ha        -250.55165401 eV
  | XC potential correction       :          11.84315299 Ha         322.26858967 eV
  | Free-atom electrostatic energy:         -35.81296446 Ha        -974.52034610 eV
  | Hartree energy correction     :          -1.68356092 Ha         -45.81202355 eV
  | Entropy correction            :           0.00000000 Ha           0.00000000 eV
  | ---------------------------
  | Total energy                  :         -76.37770898 Ha       -2078.34320631 eV
  | Total energy, T -> 0          :         -76.37770898 Ha       -2078.34320631 eV  <-- do not rely on this value for anything but (periodic) metals
  | Electronic free energy        :         -76.37770898 Ha       -2078.34320631 eV

  Derived energy quantities:
  | Kinetic energy                :          76.02945529 Ha        2068.86674115 eV
  | Electrostatic energy          :        -143.19956022 Ha       -3896.65829344 eV
  | Energy correction for multipole
  | error in Hartree potential    :          -0.00335869 Ha          -0.09139471 eV
  | Sum of eigenvalues per atom                           :        -376.57592410 eV
  | Total energy (T->0) per atom                          :        -692.78106877 eV  <-- do not rely on this value for anything but (periodic) metals
  | Electronic free energy per atom                       :        -692.78106877 eV

  Self-consistency convergence accuracy:
  | Change of charge density      :  0.1966E-03
  | Change of sum of eigenvalues  :  0.1373E-01 eV
  | Change of total energy        :  0.1047E-05 eV

  End self-consistency iteration #     9       :  max(cpu_time)    wall_clock(cpu1)
  | Time for this iteration                    :        0.019 s           0.021 s
  | Charge density update                      :        0.006 s           0.008 s
  | Density mixing                             :        0.001 s           0.001 s
  | Hartree multipole update                   :        0.001 s           0.001 s
  | Hartree multipole summation                :        0.004 s           0.004 s
  | Integration                                :        0.006 s           0.006 s
  | Solution of K.-S. eqns.                    :        0.000 s           0.001 s
  | Total energy evaluation                    :        0.000 s           0.000 s

  Partial memory accounting:
  | Current value for overall tracked memory usage on task 0  :           0.012 MB
  | Peak value for overall tracked memory usage on task 0     :           0.089 MB after allocating gradient_basis_wave
  | Largest tracked array allocation on task 0 so far         :           0.058 MB  when allocating gradient_basis_wave
  Note:  These values currently only include a subset of arrays which are explicitly tracked.
  The "true" memory usage will be greater.
------------------------------------------------------------

------------------------------------------------------------
          Begin self-consistency iteration #   10

  Date     :  20171222, Time     :  232806.926
------------------------------------------------------------
  Evaluating new KS density.
  Integration grid: deviation in total charge (<rho> - N_e) =   7.105427E-15
  Pulay mixing of updated and previous charge densities.

  Evaluating partitioned Hartree potential by multipole expansion.
  | Analytical far-field extrapolation by fixed multipoles:
  | Hartree multipole sum: apparent total charge =  -0.207673E-03
  Summing up the Hartree potential.
  Time summed over all CPUs for potential: real work        0.016 s, elapsed        0.017 s
  | RMS charge density error from multipole expansion :   0.633548E-02

  Integrating Hamiltonian matrix: batch-based integration.
  Time summed over all CPUs for integration: real work        0.022 s, elapsed        0.024 s

  Updating Kohn-Sham eigenvalues and eigenvectors using ELSI and the ELPA eigensolver.
  ELPA settings:
  | ELPA solver          1
  Finished transformation to standard eigenproblem
  | Time :     0.000 s
  Starting ELPA eigensolver
  | Time full => tridiagonal    :     0.000 s
  | Time solve tridiagonal      :     0.000 s
  | Time ev tridiagonal => full :     0.000 s
  Finished solving standard eigenproblem
  | Time :     0.000 s
  Finished back-transformation of eigenvectors
  | Time :     0.000 s

  Obtaining occupation numbers and chemical potential using ELSI.
  | Chemical potential (Fermi level):    -3.70564439eV
  Highest occupied state (VBM) at     -7.08924636 eV
[...]
  | Energy correction for multipole
  | error in Hartree potential    :          -0.00339137 Ha          -0.09228375 eV
  | Sum of eigenvalues per atom                           :        -376.59987169 eV
  | Total energy (T->0) per atom                          :        -692.83217948 eV  <-- do not rely on this value for anything but (periodic) metals
  | Electronic free energy per atom                       :        -692.83217948 eV

  Self-consistency convergence accuracy:
  | Change of charge density      :  0.2787E-06
  | Change of sum of eigenvalues  : -0.7342E-05 eV
  | Change of total energy        : -0.5514E-08 eV

  Electronic self-consistency reached - switching on the force computation.

  End self-consistency iteration #     6       :  max(cpu_time)    wall_clock(cpu1)
  | Time for this iteration                    :        0.017 s           0.018 s
  | Charge density & force component update    :        0.005 s           0.006 s
  | Density mixing                             :        0.001 s           0.001 s
  | Hartree multipole update                   :        0.001 s           0.001 s
  | Hartree multipole summation                :        0.004 s           0.004 s
  | Integration                                :        0.006 s           0.006 s
  | Solution of K.-S. eqns.                    :        0.001 s           0.000 s
  | Total energy evaluation                    :        0.000 s           0.000 s

  Partial memory accounting:
  | Current value for overall tracked memory usage on task 0  :           0.012 MB
  | Peak value for overall tracked memory usage on task 0     :           0.227 MB after allocating hessian_basis_wave
  | Largest tracked array allocation on task 0 so far         :           0.118 MB  when allocating hessian_basis_wave
  Note:  These values currently only include a subset of arrays which are explicitly tracked.
  The "true" memory usage will be greater.
------------------------------------------------------------

------------------------------------------------------------
          Begin self-consistency iteration #    7

  Date     :  20171222, Time     :  232807.859
------------------------------------------------------------
  Evaluating new KS density and force components.
  Integration grid: deviation in total charge (<rho> - N_e) =   1.776357E-15
  Pulay mixing of updated and previous charge densities.

  Evaluating partitioned Hartree potential by multipole expansion.
  | Analytical far-field extrapolation by fixed multipoles:
  | Hartree multipole sum: apparent total charge =  -0.216920E-03
  Summing up the Hartree potential.
  Time summed over all CPUs for potential: real work        0.055 s, elapsed        0.060 s
  | RMS charge density error from multipole expansion :   0.647096E-02

  Integrating Hamiltonian matrix: batch-based integration.
  Time summed over all CPUs for integration: real work        0.028 s, elapsed        0.030 s

  Updating Kohn-Sham eigenvalues and eigenvectors using ELSI and the ELPA eigensolver.
  ELPA settings:
  | ELPA solver          1
  Finished transformation to standard eigenproblem
  | Time :     0.000 s
  Starting ELPA eigensolver
  | Time full => tridiagonal    :     0.000 s
  | Time solve tridiagonal      :     0.000 s
  | Time ev tridiagonal => full :     0.000 s
  Finished solving standard eigenproblem
  | Time :     0.000 s
  Finished back-transformation of eigenvectors
  | Time :     0.000 s

  Obtaining occupation numbers and chemical potential using ELSI.
  | Chemical potential (Fermi level):    -0.79174100eV
  Highest occupied state (VBM) at     -7.07269178 eV
  | Occupation number:      2.00000000

  Lowest unoccupied state (CBM) at     0.07645992 eV
  | Occupation number:      0.00000000

  Overall HOMO-LUMO gap:      7.14915171 eV.

  Total energy components:
  | Sum of eigenvalues            :         -41.51937261 Ha       -1129.79961242 eV
  | XC energy correction          :          -9.23031217 Ha        -251.16957345 eV
  | XC potential correction       :          11.87311655 Ha         323.08393970 eV
  | Free-atom electrostatic energy:         -35.70926374 Ha        -971.69850582 eV
  | Hartree energy correction     :          -1.79751186 Ha         -48.91278645 eV
  | Entropy correction            :           0.00000000 Ha           0.00000000 eV
  | ---------------------------
  | Total energy                  :         -76.38334383 Ha       -2078.49653844 eV
  | Total energy, T -> 0          :         -76.38334383 Ha       -2078.49653844 eV  <-- do not rely on this value for anything but (periodic) metals
  | Electronic free energy        :         -76.38334383 Ha       -2078.49653844 eV

  Derived energy quantities:
  | Kinetic energy                :          76.08424491 Ha        2070.35764270 eV
  | Electrostatic energy          :        -143.23727658 Ha       -3897.68460769 eV
  | Energy correction for multipole
  | error in Hartree potential    :          -0.00339137 Ha          -0.09228375 eV
  | Sum of eigenvalues per atom                           :        -376.59987081 eV
  | Total energy (T->0) per atom                          :        -692.83217948 eV  <-- do not rely on this value for anything but (periodic) metals
  | Electronic free energy per atom                       :        -692.83217948 eV

  atomic forces [eV/Ang]:
  -----------------------
  atom #    1
   Hellmann-Feynman              : -0.325413E-12  0.175647E+02  0.316592E-12
   Ionic forces                  :  0.000000E+00  0.000000E+00  0.000000E+00
   Multipole                     : -0.141989E-12 -0.899675E-01 -0.465082E-13
   Pulay + GGA                   :  0.804968E-12 -0.174761E+02 -0.405339E-12
   ----------------------------------------------------------------
   Total forces(   1)            :  0.337567E-12 -0.141813E-02 -0.135255E-12
  atom #    2
   Hellmann-Feynman              :  0.295306E+00 -0.306819E+00 -0.910581E-14
   Ionic forces                  :  0.000000E+00  0.000000E+00  0.000000E+00
   Multipole                     : -0.437384E-02 -0.317168E-01  0.209070E-17
   Pulay + GGA                   : -0.291088E+00  0.337247E+00 -0.456943E-13
   ----------------------------------------------------------------
   Total forces(   2)            : -0.155858E-03 -0.128957E-02 -0.547980E-13
  atom #    3
   Hellmann-Feynman              : -0.295306E+00 -0.306819E+00  0.458710E-13
   Ionic forces                  :  0.000000E+00  0.000000E+00  0.000000E+00
   Multipole                     :  0.437384E-02 -0.317168E-01 -0.310120E-15
   Pulay + GGA                   :  0.291088E+00  0.337247E+00 -0.493739E-13
   ----------------------------------------------------------------
   Total forces(   3)            :  0.155858E-03 -0.128957E-02 -0.381302E-14


  Self-consistency convergence accuracy:
  | Change of charge density      :  0.2221E-07
  | Change of sum of eigenvalues  :  0.2634E-05 eV
  | Change of total energy        :  0.1914E-09 eV
  | Change of forces              :  0.1010E+02 eV/A

  Writing Kohn-Sham eigenvalues.

  State    Occupation    Eigenvalue [Ha]    Eigenvalue [eV]
      1       2.00000         -18.759443         -510.47040
      2       2.00000          -0.923684          -25.13471
      3       2.00000          -0.478547          -13.02193
      4       2.00000          -0.338097           -9.20008
      5       2.00000          -0.259917           -7.07269
      6       0.00000           0.002810            0.07646
      7       0.00000           0.100487            2.73438
      8       0.00000           0.298285            8.11675
      9       0.00000           0.334242            9.09518
     10       0.00000           0.369677           10.05944
     11       0.00000           0.575109           15.64951

  Highest occupied state (VBM) at     -7.07269178 eV
  | Occupation number:      2.00000000

  Lowest unoccupied state (CBM) at     0.07645992 eV
  | Occupation number:      0.00000000

  Overall HOMO-LUMO gap:      7.14915171 eV.

  Self-consistency cycle converged.

  End self-consistency iteration #     7       :  max(cpu_time)    wall_clock(cpu1)
  | Time for this iteration                    :        0.039 s           0.041 s
  | Charge density & force component update    :        0.015 s           0.015 s
  | Density mixing                             :        0.001 s           0.001 s
  | Hartree multipole update                   :        0.001 s           0.001 s
  | Hartree multipole summation                :        0.013 s           0.015 s
  | Integration                                :        0.008 s           0.008 s
  | Solution of K.-S. eqns.                    :        0.001 s           0.001 s
  | Total energy evaluation                    :        0.000 s           0.000 s

  Partial memory accounting:
  | Current value for overall tracked memory usage on task 0  :           0.012 MB
  | Peak value for overall tracked memory usage on task 0     :           0.227 MB after allocating hessian_basis_wave
  | Largest tracked array allocation on task 0 so far         :           0.118 MB  when allocating hessian_basis_wave
  Note:  These values currently only include a subset of arrays which are explicitly tracked.
  The "true" memory usage will be greater.
------------------------------------------------------------
  |------------------------------------------
  | Final ELSI Output
  |------------------------------------------
  | Number of basis functions :           24
  | Number of electrons       :         10.0
  | Number of spins           :            1
  | Number of k-points        :            1
  | Number of states          :           11
  | Solver                    :         ELPA
  | Parallel mode             :   MULTI_PROC
  | Matrix format             :  BLACS_DENSE
  | Matrix sparsity           :        0.431
  |------------------------------------------
  | ELSI Project (c)  elsi-interchange.org
  |------------------------------------------
  Removing unitary transformations (pure translations, rotations) from forces on atoms.
  Atomic forces before filtering:
  | Net force on center of mass :  -0.125270E-12 -0.399728E-02 -0.193866E-12 eV/A
  | Net torque on center of mass:  -0.421752E-13  0.391262E-13  0.290891E-13 eV
  Atomic forces after filtering:
  | Net force on center of mass :  -0.217781E-19  0.871124E-18  0.608473E-28 eV/A
  | Net torque on center of mass:   0.121107E-28 -0.155649E-28 -0.149818E-18 eV

  Energy and forces in a compact form:
  | Total energy uncorrected      :         -0.207849653844117E+04 eV
  | Total energy corrected        :         -0.207849653844117E+04 eV  <-- do not rely on this value for anything but (periodic) metals
  | Electronic free energy        :         -0.207849653844117E+04 eV
  Total atomic forces (unitary forces cleaned) [eV/Ang]:
  |   1          0.387504013167354E-12         -0.857074396395898E-04          0.405648561641326E-28
  |   2         -0.155858428973982E-03          0.428537199705503E-04          0.202824280820663E-28
  |   3          0.155858428586478E-03          0.428537196690404E-04          0.000000000000000E+00

  ------------------------------------ 
  Start decomposition of the XC Energy 
  ------------------------------------ 
  X and C from original XC functional choice 
  Hartree-Fock Energy :          0.000000000 Ha              0.000000000 eV
  X Energy            :         -8.905264261 Ha           -242.324569887 eV
  C Energy            :         -0.325047906 Ha             -8.845003562 eV
  Total XC Energy     :         -9.230312168 Ha           -251.169573450 eV
  ------------------------------------ 
  LDA X and C from self-consistent density 
  X Energy LDA        :         -8.090626236 Ha           -220.157141358 eV
  C Energy LDA        :         -0.659245109 Ha            -17.938972154 eV
  ------------------------------------ 
  End decomposition of the XC Energy 
  ------------------------------------ 

------------------------------------------------------------
  Relaxation / MD: End force evaluation.       :  max(cpu_time)    wall_clock(cpu1)
  | Time for this force evaluation             :        0.176 s           0.186 s

------------------------------------------------------------
  Geometry optimization: Attempting to predict improved coordinates.

  Removing unitary transformations (pure translations, rotations) from forces on atoms.
  Atomic forces before filtering:
  | Net force on center of mass :  -0.217781E-19  0.871124E-18  0.608473E-28 eV/A
  | Net torque on center of mass:   0.121107E-28 -0.155649E-28 -0.149818E-18 eV
  Atomic forces after filtering:
  | Net force on center of mass :   0.000000E+00  0.000000E+00 -0.157626E-43 eV/A
  | Net torque on center of mass:  -0.411831E-44  0.725268E-44 -0.576223E-20 eV
  Net remaining forces (excluding translations, rotations) in present geometry:
  Maximum force component is  0.155858E-03 eV/A.
  Present geometry is converged.

------------------------------------------------------------
  Final atomic structure:
                         x [A]             y [A]             z [A]
            atom        -0.00000000       -0.07326324        0.00000000  O
            atom         0.76740631       -0.67036838        0.00000000  H
            atom        -0.76740631       -0.67036838       -0.00000000  H
------------------------------------------------------------

------------------------------------------------------------------------------
  Final output of selected total energy values:

  The following output summarizes some interesting total energy values
  at the end of a run (AFTER all relaxation, molecular dynamics, etc.).

  | Total energy of the DFT / Hartree-Fock s.c.f. calculation      :          -2078.496538441 eV
  | Final zero-broadening corrected energy (caution - metals only) :          -2078.496538441 eV
  | For reference only, the value of 1 Hartree used in FHI-aims is :             27.211384500 eV

  Before relying on these values, please be sure to understand exactly which
  total energy value is referred to by a given number. Different objects may
  all carry the same name 'total energy'. Definitions:

  Total energy of the DFT / Hartree-Fock s.c.f. calculation:
  | Note that this energy does not include ANY quantities calculated after the
  | s.c.f. cycle, in particular not ANY RPA, MP2, etc. many-body perturbation terms.

  Final zero-broadening corrected energy:
  | For metallic systems only, a broadening of the occupation numbers at the Fermi
  | level can be extrapolated back to zero broadening by an electron-gas inspired
  | formula. For all systems that are not real metals, this value can be
  | meaningless and should be avoided.

------------------------------------------------------------------------------
  Methods described in the following list of references were used in this FHI-aims run.
  If you publish the results, please make sure to cite these reference if they apply.
  FHI-aims is an academic code, and for our developers (often, Ph.D. students
  and postdocs), scientific credit in the community is essential.
  Thank you for helping us!

  For any use of FHI-aims, please cite:

    Volker Blum, Ralf Gehrke, Felix Hanke, Paula Havu, Ville Havu,
    Xinguo Ren, Karsten Reuter, and Matthias Scheffler
    'Ab initio molecular simulations with numeric atom-centered orbitals'
    Computer Physics Communications 180, 2175-2196 (2009)
    http://dx.doi.org/10.1016/j.cpc.2009.06.022


  The scalable eigensolver library ELPA was used in your run.
  ELPA is essential especially for large systems on hundreds or thousands of CPUs.
  For ELPA, please cite:

    Andreas Marek, Volker Blum, Rainer Johanni, Ville Havu, Bruno Lang,
    Thomas Auckenthaler, Alexander Heinecke, Hans-Joachim Bungartz, and Hermann Lederer,
    'The ELPA Library - Scalable Parallel Eigenvalue Solutions
    for Electronic Structure Theory and Computational Science'
    The Journal of Physics: Condensed Matter 26, 213201 (2014).
    http://dx.doi.org/10.1088/0953-8984/26/21/213201


  The ELSI infrastructure was used in your run to solve the Kohn-Sham electronic structure.
  Please check out http://elsi-interchange.org to learn more.
  If scalability is important for your project, please acknowledge ELSI by citing:

    V. W-z. Yu, F. Corsetti, A. Garcia, W. P. Huhn, M. Jacquelin, W. Jia,
    B. Lange, L. Lin, J. Lu, W. Mi, A. Seifitokaldani, A. Vazquez-Mayagoitia,
    C. Yang, H. Yang, and V. Blum
    'ELSI: A unified software interface for Kohn-Sham electronic structure solvers'
    Computer Physics Communications 222, 267-285 (2018).
    http://dx.doi.org/10.1016/j.cpc.2017.09.007


  For the real-space grid partitioning and parallelization used in this calculation, please cite:

    Ville Havu, Volker Blum, Paula Havu, and Matthias Scheffler,
    'Efficient O(N) integration for all-electron electronic structure calculation'
    'using numerically tabulated basis functions'
    Journal of Computational Physics 228, 8367-8379 (2009).
    http://dx.doi.org/10.1016/j.jcp.2009.08.008

  Of course, there are many other important community references, e.g., those cited in the
  above references. Our list is limited to references that describe implementations in the
  FHI-aims code. The reason is purely practical (length of this list) - please credit others as well.

------------------------------------------------------------
          Leaving FHI-aims.
          Date     :  20171222, Time     :  232807.911

          Computational steps:
          | Number of self-consistency cycles          :           49
          | Number of SCF (re)initializations          :            5
          | Number of relaxation steps                 :            4

          Detailed time accounting                     :  max(cpu_time)    wall_clock(cpu1)
          | Total time                                 :        1.306 s           1.374 s
          | Preparation time                           :        0.083 s           0.088 s
          | Boundary condition initalization           :        0.000 s           0.000 s
          | Grid partitioning                          :        0.026 s           0.025 s
          | Preloading free-atom quantities on grid    :        0.012 s           0.012 s
          | Free-atom superposition energy             :        0.012 s           0.013 s
          | Total time for integrations                :        0.368 s           0.385 s
          | Total time for solution of K.-S. equations :        0.030 s           0.031 s
          | Total time for EV reorthonormalization     :        0.001 s           0.000 s
          | Total time for density & force components  :        0.294 s           0.308 s
          | Total time for mixing                      :        0.043 s           0.043 s
          | Total time for Hartree multipole update    :        0.046 s           0.051 s
          | Total time for Hartree multipole sum       :        0.269 s           0.286 s
          | Total time for total energy evaluation     :        0.008 s           0.009 s

          Partial memory accounting:
          | Residual value for overall tracked memory usage across tasks :           0.000 MB (should be 0.000 MB)
          | Peak values for overall tracked memory usage (after allocating hessian_basis_wave):
          |   Minimum:        0.223 MB (on task 4)
          |   Maximum:        0.227 MB (on task 1)
          |   Average:        0.225 MB
          | Largest tracked array allocation (hessian_basis_wave):
          |   Minimum:        0.118 MB (on task 1)
          |   Maximum:        0.118 MB (on task 1)
          |   Average:        0.118 MB
          Note:  These values currently only include a subset of arrays which are explicitly tracked.
          The "true" memory usage will be greater.

          Have a nice day.
------------------------------------------------------------
