  MPI-parallelism will be employed.
------------------------------------------------------------
          Invoking FHI-aims ...
          Version 180101-
          Git rev. (modified): fa29f3a Merge branch master of fhiaims.rzberlin.mp[...]
          Compiled on 2018/01/19 at 14:47:46 on host theobook132.

          When using FHI-aims, please cite the following reference:

          Volker Blum, Ralf Gehrke, Felix Hanke, Paula Havu,
          Ville Havu, Xinguo Ren, Karsten Reuter, and Matthias Scheffler,
          'Ab Initio Molecular Simulations with Numeric Atom-Centered Orbitals',
          Computer Physics Communications 180, 2175-2196 (2009)

          For any questions about FHI-aims, please visit the aimsclub website
          with its forums and wiki. Contributions to both the forums and the
          wiki are warmly encouraged - they are for you, and everyone is welcome there.

------------------------------------------------------------



  Date     :  20180214, Time     :  164219.538
  Time zero on CPU 1             :   0.480000000000000E-01  s.
  Internal wall clock time zero  :           287858539.538  s.

  FHI-aims created a unique identifier for this run for later identification
  aims_uuid : 0DF0D081-0DCD-4611-ABDF-553145837F65

  Using        8 parallel tasks.
  Task        0 on host theobook132 reporting.
  Task        1 on host theobook132 reporting.
  Task        2 on host theobook132 reporting.
  Task        3 on host theobook132 reporting.
  Task        4 on host theobook132 reporting.
  Task        5 on host theobook132 reporting.
  Task        6 on host theobook132 reporting.
  Task        7 on host theobook132 reporting.

  Performing system and environment tests:
  *** Environment variable OMP_NUM_THREADS is not set
  *** For performance reasons you might want to set it to 1
  | Stacksize not measured: no C compiler
  | Checking for scalapack...
  | No scalapack compiled in.

  Obtaining array dimensions for all initial allocations:
  
  -----------------------------------------------------------------------
  Parsing control.in (first pass over file, find array dimensions only).
  The contents of control.in will be repeated verbatim below
  unless switched off by setting 'verbatim_writeout .false.' .
  in the first line of control.in .
  -----------------------------------------------------------------------
  
  ################################################################################
  #
  #		Control.in generated by mkcontrol
  #
  ################################################################################
  xc			pbe
  vdw_correction_hirshfeld
  relativistic		none
  sc_accuracy_rho		1E-5
  sc_accuracy_eev		1E-3
  sc_accuracy_etot	1E-6
  sc_iter_limit		1000	
  
  compute_forces .true.
  final_forces_cleaned .true.
  
  ################################################################################
  #
  #  FHI-aims code project
  #  VB, Fritz-Haber Institut, 2009
  #
  #  Suggested "light" defaults for H atom (to be pasted into control.in file)
  #  Be sure to double-check any results obtained with these settings for post-processing,
  #  e.g., with the "tight" defaults and larger basis sets.
  #
  ################################################################################
    species        H
  #     global species definitions
      nucleus             1
      mass                1.00794
  #
      l_hartree           4
  #
      cut_pot             3.5  1.5  1.0
      basis_dep_cutoff    1e-4
  #
      radial_base         24 5.0
      radial_multiplier   1
      angular_grids       specified
        division   0.2421   50
        division   0.3822  110
        division   0.4799  194
        division   0.5341  302
  #      division   0.5626  434
  #      division   0.5922  590
  #      division   0.6542  770
  #      division   0.6868 1202
  #      outer_grid  770
        outer_grid  302
  ################################################################################
  #
  #  Definition of "minimal" basis
  #
  ################################################################################
  #     valence basis states
      valence      1  s   1.
  #     ion occupancy
      ion_occ      1  s   0.5
  ################################################################################
  #
  #  Suggested additional basis functions. For production calculations,
  #  uncomment them one after another (the most important basis functions are
  #  listed first).
  #
  #  Basis constructed for dimers: 0.5 A, 0.7 A, 1.0 A, 1.5 A, 2.5 A
  #
  ################################################################################
  #  "First tier" - improvements: -1014.90 meV to -62.69 meV
       hydro 2 s 2.1
       hydro 2 p 3.5
  #  "Second tier" - improvements: -12.89 meV to -1.83 meV
  #     hydro 1 s 0.85
  #     hydro 2 p 3.7
  #     hydro 2 s 1.2
  #     hydro 3 d 7
  #  "Third tier" - improvements: -0.25 meV to -0.12 meV
  #     hydro 4 f 11.2
  #     hydro 3 p 4.8
  #     hydro 4 d 9
  #     hydro 3 s 3.2
  
  ################################################################################
  #
  #  FHI-aims code project
  #  VB, Fritz-Haber Institut, 2009
  #
  #  Suggested "light" defaults for C atom (to be pasted into control.in file)
  #  Be sure to double-check any results obtained with these settings forpost-processing,
  #  e.g., with the "tight" defaults and larger basis sets.
  #
  ################################################################################
    species        C
  #     global species definitions
      nucleus             6
      mass                12.0107
  #
      l_hartree           4
  #
      cut_pot             3.5  1.5  1.0
      basis_dep_cutoff    1e-4
  #
      radial_base         34 5.0
      radial_multiplier   1
      angular_grids specified
        division   0.3326   50
        division   0.5710  110
        division   0.7727  194
        division   0.8772  302
  #      division   0.9334  434
  #      division   0.9625  590
  #      division   0.9924  770
  #      division   1.0230  974
  #      division   1.4589 1202
  #     outer_grid  974
       outer_grid 302
  ################################################################################
  #
  #  Definition of "minimal" basis
  #
  ################################################################################
  #     valence basis states
      valence      2  s   2.
      valence      2  p   2.
  #     ion occupancy
      ion_occ      2  s   1.
      ion_occ      2  p   1.
  ################################################################################
  #
  #  Suggested additional basis functions. For production calculations,
  #  uncomment them one after another (the most important basis functions are
  #  listed first).
  #
  #  Constructed for dimers: 1.0 A, 1.25 A, 1.5 A, 2.0 A, 3.0 A
  #
  ################################################################################
  #  "First tier" - improvements: -1214.57 meV to -155.61 meV
       hydro 2 p 1.7
       hydro 3 d 6
       hydro 2 s 4.9
  #  "Second tier" - improvements: -67.75 meV to -5.23 meV
  #     hydro 4 f 9.8
  #     hydro 3 p 5.2
  #     hydro 3 s 4.3
  #     hydro 5 g 14.4
  #     hydro 3 d 6.2
  #  "Third tier" - improvements: -2.43 meV to -0.60 meV
  #     hydro 2 p 5.6
  #     hydro 2 s 1.4
  #     hydro 3 d 4.9
  #     hydro 4 f 11.2
  #  "Fourth tier" - improvements: -0.39 meV to -0.18 meV
  #     hydro 2 p 2.1
  #     hydro 5 g 16.4
  #     hydro 4 d 13.2
  #     hydro 3 s 13.6
  #     hydro 4 f 17.6
  #  Further basis functions - improvements: -0.08 meV and below
  #     hydro 3 s 2
  #     hydro 3 p 6
  #     hydro 4 d 20
  
  -----------------------------------------------------------------------
  Completed first pass over input file control.in .
  -----------------------------------------------------------------------
  
  
  -----------------------------------------------------------------------
  Parsing geometry.in (first pass over file, find array dimensions only).
  The contents of geometry.in will be repeated verbatim below
  unless switched off by setting 'verbatim_writeout .false.' .
  in the first line of geometry.in .
  -----------------------------------------------------------------------
  
  #=======================================#
  # iterations/iteration0000/aims-chain-node-1.00000/geometry.in
  #=======================================#
  atom 0.0000000000000000 -1.5895155800000000 -0.4030729600000000 C
  atom 0.0000000000000000 -0.6705149800000000 0.7809616300000000 C
  atom 0.0000000000000000 0.6705149800000000 0.7809616300000000 C
  atom 0.0000000000000000 1.5895155800000000 -0.4030729600000000 C
  atom 0.0000000000000000 -1.0571062200000001 -1.3616759100000000 H
  atom -0.8812403500000000 -2.2495247900000002 -0.3858860000000000 H
  atom 0.8812403500000000 -2.2495247900000002 -0.3858860000000000 H
  atom 0.0000000000000000 -1.1684110599999999 1.7555592400000000 H
  atom 0.0000000000000000 1.1684110599999999 1.7555592400000000 H
  atom 0.0000000000000000 1.0571062200000001 -1.3616759100000000 H
  atom -0.8812403500000000 2.2495247900000002 -0.3858860000000000 H
  atom 0.8812403500000000 2.2495247900000002 -0.3858860000000000 H
  
  -----------------------------------------------------------------------
  Completed first pass over input file geometry.in .
  -----------------------------------------------------------------------
  

  Basic array size parameters:
  | Number of species                 :        2
  | Number of atoms                   :       12
  | Max. basis fn. angular momentum   :        2
  | Max. atomic/ionic basis occupied n:        2
  | Max. number of basis fn. types    :        2
  | Max. radial fns per species/type  :        3
  | Max. logarithmic grid size        :     1277
  | Max. radial integration grid size :       34
  | Max. angular integration grid size:      302
  | Max. angular grid division number :        8
  | Radial grid for Hartree potential :     1277
  | Number of spin channels           :        1

------------------------------------------------------------
          Reading file control.in.
------------------------------------------------------------
  XC: Using PBE gradient-corrected functionals.
  Non-relativistic treatment of kinetic energy.
  Convergence accuracy of self-consistent charge density:  0.1000E-04
  Convergence accuracy of sum of eigenvalues:  0.1000E-02
  Convergence accuracy of total energy:  0.1000E-05
  Maximum number of s.-c. iterations  :  1000
  Forces will be computed.
  Cleaning forces before final output.
 
  Reading configuration options for species H                   .
  | Found nuclear charge :   1.0000
  | Found atomic mass :    1.00794000000000      amu
  | Found l_max for Hartree potential  :   4
  | Found cutoff potl. onset [A], width [A], scale factor :    3.50000    1.50000    1.00000
  | Threshold for basis-dependent cutoff potential is   0.100000E-03
  | Found data for basic radial integration grid :    24 points, outermost radius =    5.000 A
  | Found multiplier for basic radial grid :   1
  | Found angular grid specification: user-specified.
  | Specified grid contains     5 separate shells.
  | Check grid settings after all constraints further below.
  | Found free-atom valence shell :  1 s   1.000
  | No ionic wave fns used. Skipping ion_occ.
  | Found hydrogenic basis function :  2 s   2.100
  | Found hydrogenic basis function :  2 p   3.500
  Species H                   : Missing cutoff potential type.
  Defaulting to exp(1/x)/(1-x)^2 type cutoff potential.
  Species H : No 'logarithmic' tag. Using default grid for free atom:
  | Default logarithmic grid data [bohr] : 0.1000E-03 0.1000E+03 0.1012E+01
  Species H : On-site basis accuracy parameter (for Gram-Schmidt orthonormalisation) not specified.
  Using default value basis_acc =  0.1000000E-03.
  Species H                   : Using default innermost maximum threshold i_radial=  2 for radial functions.
  Species H                   : Default cutoff onset for free atom density etc. : 0.35000000E+01 AA.
  Species H                   : Basic radial grid will be enhanced according to radial_multiplier =   1, to contain    24 grid points.
 
  Reading configuration options for species C                   .
  | Found nuclear charge :   6.0000
  | Found atomic mass :    12.0107000000000      amu
  | Found l_max for Hartree potential  :   4
  | Found cutoff potl. onset [A], width [A], scale factor :    3.50000    1.50000    1.00000
  | Threshold for basis-dependent cutoff potential is   0.100000E-03
  | Found data for basic radial integration grid :    34 points, outermost radius =    5.000 A
  | Found multiplier for basic radial grid :   1
  | Found angular grid specification: user-specified.
  | Specified grid contains     5 separate shells.
  | Check grid settings after all constraints further below.
  | Found free-atom valence shell :  2 s   2.000
  | Found free-atom valence shell :  2 p   2.000
  | No ionic wave fns used. Skipping ion_occ.
  | No ionic wave fns used. Skipping ion_occ.
  | Found hydrogenic basis function :  2 p   1.700
  | Found hydrogenic basis function :  3 d   6.000
  | Found hydrogenic basis function :  2 s   4.900
  Species C                   : Missing cutoff potential type.
  Defaulting to exp(1/x)/(1-x)^2 type cutoff potential.
  Species C : No 'logarithmic' tag. Using default grid for free atom:
  | Default logarithmic grid data [bohr] : 0.1000E-03 0.1000E+03 0.1012E+01
  Species C : On-site basis accuracy parameter (for Gram-Schmidt orthonormalisation) not specified.
  Using default value basis_acc =  0.1000000E-03.
  Species C                   : Using default innermost maximum threshold i_radial=  2 for radial functions.
  Species C                   : Default cutoff onset for free atom density etc. : 0.35000000E+01 AA.
  Species C                   : Basic radial grid will be enhanced according to radial_multiplier =   1, to contain    34 grid points.
 
  Finished reading input file 'control.in'. Consistency checks are next.
 
  MPI_IN_PLACE appears to work with this MPI implementation.
  | Keeping use_mpi_in_place .true. (see manual).
  Target number of points in a grid batch is not set. Defaulting to  100
  Method for grid partitioning is not set. Defaulting to parallel hash+maxmin partitioning.
  Batch size limit is not set. Defaulting to    200
  By default, will store active basis functions for each batch.
  If in need of memory, prune_basis_once .false. can be used to disable this option.
  communication_type for Hartree potential was not specified.
  Defaulting to calc_hartree .
  Defaulting to Pulay charge density mixer.
  Pulay mixer: Number of relevant iterations not set.
  Defaulting to    8 iterations.
  Pulay mixer: Number of initial linear mixing iterations not set.
  Defaulting to    0 iterations.
  Work space size for distributed Hartree potential not set.
  Defaulting to   0.200000E+03 MB.
  Mixing parameter for charge density mixing has not been set.
  Using default: charge_mix_param =     0.0500.
  The mixing parameter will be adjusted in iteration number     2 of the first full s.c.f. cycle only.
  Algorithm-dependent basis array size parameters:
  | n_max_pulay                         :        8
  Presetting        40 iterations before the initial mixing cycle
  is restarted anyway using the sc_init_iter criterion / keyword.
  Presetting a factor      1.000 between actual scf density residual
  and density convergence criterion sc_accuracy_rho below which sc_init_iter
  takes no effect.
  Geometry relaxation not requested: no relaxation will be performed.
  Force calculation: scf convergence accuracy of forces not set.
  Defaulting to 'sc_accuracy_forces not_checked'.
  Handling of forces: Unphysical translation and rotation will be removed from forces.
  No accuracy limit for integral partition fn. given. Defaulting to  0.1000E-14.
  No threshold value for u(r) in integrations given. Defaulting to  0.1000E-05.
  No occupation type (smearing scheme) given. Defaulting to Gaussian broadening, width =  0.1000E-01 eV.
  The width will be adjusted in iteration number     2 of the first full s.c.f. cycle only.
  S.C.F. convergence parameters will be adjusted in iteration number     2 of the first full s.c.f. cycle only.
  No accuracy for occupation numbers given. Defaulting to  0.1000E-12.
  No threshold value for occupation numbers given. Defaulting to  0.0000E+00.
  No accuracy for fermi level given. Defaulting to  0.1000E-19.
  Maximum # of iterations to find E_F not set. Defaulting to  200.
  Preferred method for the eigenvalue solver ('KS_method') not specified in 'control.in'.
  Calling BLACS routine to test compilation state
  The best choice would be 'elsi', but your version of FHI-aims is compiled without ScaLAPACK support.
  Defaulting to 'lapack_fast' instead (serial solution, time will not improve with more CPUs).
  Will not use alltoall communication since running on < 1024 CPUs.
  Threshold for basis singularities not set.
  Default threshold for basis singularities:  0.1000E-04
  partition_type (choice of integration weights) for integrals was not specified.
  | Using a version of the partition function of Stratmann and coworkers ('stratmann_smoother').
  | At each grid point, the set of atoms used to build the partition table is smoothly restricted to
  | only those atoms whose free-atom density would be non-zero at that grid point.
  Partitioning for Hartree potential was not defined. Using partition_type for integrals.
  | Adjusted default value of keyword multip_moments_threshold to:       0.10000000E-11
  | This value may affect high angular momentum components of the Hartree potential in periodic systems.
  Spin handling was not defined in control.in. Defaulting to unpolarized case.
  No q(lm)/r^(l+1) cutoff set for long-range Hartree potential.
  | Using default value of  0.100000E-09 .
  | Verify using the multipole_threshold keyword.
  Defaulting to new monopole extrapolation.
  Density update method: automatic selection selected.
------------------------------------------------------------


------------------------------------------------------------
          Reading geometry description geometry.in.
------------------------------------------------------------
  Input structure read successfully.
  The structure contains       12 atoms,  and a total of         32.000 electrons.

  Input geometry:
  | No unit cell requested.
  | Atomic structure:
  |       Atom                x [A]            y [A]            z [A]
  |    1: Species C             0.00000000       -1.58951558       -0.40307296
  |    2: Species C             0.00000000       -0.67051498        0.78096163
  |    3: Species C             0.00000000        0.67051498        0.78096163
  |    4: Species C             0.00000000        1.58951558       -0.40307296
  |    5: Species H             0.00000000       -1.05710622       -1.36167591
  |    6: Species H            -0.88124035       -2.24952479       -0.38588600
  |    7: Species H             0.88124035       -2.24952479       -0.38588600
  |    8: Species H             0.00000000       -1.16841106        1.75555924
  |    9: Species H             0.00000000        1.16841106        1.75555924
  |   10: Species H             0.00000000        1.05710622       -1.36167591
  |   11: Species H            -0.88124035        2.24952479       -0.38588600
  |   12: Species H             0.88124035        2.24952479       -0.38588600
  |

  | The smallest distance between any two atoms is         1.09441355 AA.
  |
  | The first atom of this pair is atom number                      2 .
  | The second atom of this pair is atom number                     8 .

  Number of empty states per atom not set in control.in - providing a guess from actual geometry.
  | Total number of empty states used during s.c.f. cycle:       24
  If you use a very high smearing, use empty_states (per atom!) in control.in to increase this value.

  Structure-dependent array size parameters: 
  | Maximum number of distinct radial functions  :        9
  | Maximum number of basis functions            :       96
  | Number of Kohn-Sham states (occupied + empty):       40
------------------------------------------------------------

------------------------------------------------------------
          Preparing all fixed parts of the calculation.
------------------------------------------------------------
  Determining machine precision:
    2.225073858507201E-308
  Setting up grids for atomic and cluster calculations.

  Creating wave function, potential, and density for free atoms.

  Species: H

  List of occupied orbitals and eigenvalues:
    n    l              occ      energy [Ha]    energy [eV]
    1    0           1.0000        -0.237589        -6.4651


  Species: C

  List of occupied orbitals and eigenvalues:
    n    l              occ      energy [Ha]    energy [eV]
    1    0           2.0000       -10.038835      -273.1706
    2    0           2.0000        -0.502696       -13.6791
    2    1           2.0000        -0.191971        -5.2238

  Creating fixed part of basis set: Ionic, confined, hydrogenic.
 
  H                    hydrogenic:
 
  List of hydrogenic basis orbitals: 
    n    l      effective z      eigenvalue [eV]  inner max. [A]     outer max. [A]     outer radius [A]   
    2    0         2.100000       -14.9728           0.193243           1.317208           4.583499
    2    1         3.500000       -41.6669           0.602369           0.602369           3.723403
 
 
  C                    hydrogenic:
 
  List of hydrogenic basis orbitals: 
    n    l      effective z      eigenvalue [eV]  inner max. [A]     outer max. [A]     outer radius [A]   
    2    1         1.700000        -9.7616           1.230570           1.230570           4.607917
    3    2         6.000000       -54.4224           0.792453           0.792453           3.883070
    2    0         4.900000       -81.6679           0.082559           0.562749           3.078220
 

  Adding cutoff potential to free-atom effective potential.
  Creating atomic-like basis functions for current effective potential.

  Species H                   :

  List of atomic basis orbitals and eigenvalues:
    n    l      energy [Ha]    energy [eV]    outer radius [A]
    1    0        -0.237589        -6.4651       4.527807


  Species C                   :

  List of atomic basis orbitals and eigenvalues:
    n    l      energy [Ha]    energy [eV]    outer radius [A]
    1    0       -10.038835      -273.1706       1.934409
    2    0        -0.502696       -13.6791       4.496620
    2    1        -0.191971        -5.2238       4.551928

  Assembling full basis from fixed parts.
  | Species H :   atomic orbital   1 s accepted.
  | Species H :    hydro orbital   2 s accepted.
  | Species H :    hydro orbital   2 p accepted.
  | Species C :   atomic orbital   1 s accepted.
  | Species C :    hydro orbital   2 s accepted.
  | Species C :   atomic orbital   2 s accepted.
  | Species C :   atomic orbital   2 p accepted.
  | Species C :    hydro orbital   2 p accepted.
  | Species C :    hydro orbital   3 d accepted.
 
  Basis size parameters after reduction:
  | Total number of radial functions:        9
  | Total number of basis functions :       96
 
  Per-task memory consumption for arrays in subroutine allocate_ext:
  |           2.209696MB.
  Testing on-site integration grid accuracy.
  |  Species  Function  <phi|h_atom|phi> (log., in eV)  <phi|h_atom|phi> (rad., in eV)
           1        1                 -6.4663192853                 -6.4651273558
           1        2                 13.7111246313                 13.7170609718
           1        3                 25.2673269279                 25.2674696378
           2        4               -273.1705927641               -273.1705631568
           2        5                -10.7109323383                -10.7107120029
           2        6                 17.4381822266                 17.4352413244
           2        7                 -5.2255326521                 -5.2270484734
           2        8                  8.6835629259                  8.6603288385
           2        9                 27.4952418996                 27.4953360207

  Preparing densities etc. for the partition functions (integrals / Hartree potential).

  Preparations completed.
  max(cpu_time)          :      0.144 s.
  Wall clock time (cpu1) :      0.154 s.
------------------------------------------------------------

------------------------------------------------------------
          Begin self-consistency loop: Initialization.

          Date     :  20180214, Time     :  164219.701
------------------------------------------------------------

  Initializing index lists of integration centers etc. from given atomic structure:
  | Number of centers in hartree potential         :        12
  | Number of centers in hartree multipole         :        12
  | Number of centers in electron density summation:        12
  | Number of centers in basis integrals           :        12
  | Number of centers in integrals                 :        12
  | Number of centers in hamiltonian               :        12
  Partitioning the integration grid into batches with parallel hashing+maxmin method.
  | Number of batches:      797
  | Maximal batch size:     149
  | Minimal batch size:      50
  | Average batch size:      76.467
  | Standard deviation of batch sizes:      19.364

  Integration load balanced across     8 MPI tasks.
  Work distribution over tasks is as follows:
  Task     0 has       7636 integration points.
  Task     1 has       7597 integration points.
  Task     2 has       7655 integration points.
  Task     3 has       7562 integration points.
  Task     4 has       7578 integration points.
  Task     5 has       7634 integration points.
  Task     6 has       7641 integration points.
  Task     7 has       7641 integration points.
  Initializing partition tables, free-atom densities, potentials, etc. across the integration grid (initialize_grid_storage).
  | initialize_grid_storage: Actual outermost partition radius vs. multipole_radius_free
  | (-- VB: in principle, multipole_radius_free should be larger, hence this output)
  | Species        1: Confinement radius =              4.999999999999999 AA, multipole_radius_free =              5.054417573612229 AA.
  | Species        1: outer_partition_radius set to              5.054417573612229 AA .
  | Species        2: Confinement radius =              4.999999999999999 AA, multipole_radius_free =              5.019602836301480 AA.
  | Species        2: outer_partition_radius set to              5.019602836301480 AA .
  | Original list of interatomic distances with          12 x         12 entries is created.
  | Net number of integration points:    60944
  | of which are non-zero points    :    52360
  Renormalizing the initial density to the exact electron count on the 3D integration grid.
  | Initial density: Formal number of electrons (from input files) :      32.0000000000
  | Integrated number of electrons on 3D grid     :      31.9997071895
  | Charge integration error                      :      -0.0002928105
  | Normalization factor for density and gradient :       1.0000091504
  Obtaining max. number of non-zero basis functions in each batch (get_n_compute_maxes).
  | Maximal number of non-zero basis functions:       96 in task     0
  | Maximal number of non-zero basis functions:       96 in task     1
  | Maximal number of non-zero basis functions:       96 in task     2
  | Maximal number of non-zero basis functions:       96 in task     3
  | Maximal number of non-zero basis functions:       96 in task     4
  | Maximal number of non-zero basis functions:       96 in task     5
  | Maximal number of non-zero basis functions:       96 in task     6
  | Maximal number of non-zero basis functions:       96 in task     7
  Selecting the method for density update.
  Loop over occupied states selected for charge density update.
  Allocating        0.031 MB for KS_eigenvector
  Integrating Hamiltonian matrix: batch-based integration.
  Time summed over all CPUs for integration: real work        1.423 s, elapsed        1.476 s
  Integrating overlap matrix.
  Time summed over all CPUs for integration: real work        0.538 s, elapsed        0.573 s

  Updating Kohn-Sham eigenvalues, eigenvectors, occupation numbers, and Fermi level.
  Solving generalized eigenproblem
  Updating Kohn-Sham eigenvalues and eigenfunctions.
  Transforming overlap matrix and checking for singularities.
  Overlap matrix is nonsingular:
  | Lowest eigenvalue:  0.297179E-02
  Solving real generalised eigenvalue problem by standard LAPACK (fast)

  Obtaining occupation numbers and chemical potential using ELSI.
  | Chemical potential (Fermi level):    -8.50550800eV
  Writing Kohn-Sham eigenvalues.

  State    Occupation    Eigenvalue [Ha]    Eigenvalue [eV]
      1       2.00000         -10.167246         -276.66485
      2       2.00000         -10.167246         -276.66485
      3       2.00000         -10.151961         -276.24891
      4       2.00000         -10.151310         -276.23120
      5       2.00000          -0.928671          -25.27042
      6       2.00000          -0.851716          -23.17638
      7       2.00000          -0.796397          -21.67106
      8       2.00000          -0.657073          -17.87986
      9       2.00000          -0.612722          -16.67301
     10       2.00000          -0.575137          -15.65027
     11       2.00000          -0.547569          -14.90010
     12       2.00000          -0.534063          -14.53260
     13       2.00000          -0.526724          -14.33290
     14       2.00000          -0.504060          -13.71618
     15       2.00000          -0.479205          -13.03984
     16       2.00000          -0.386458          -10.51605
     17       0.00000          -0.176947           -4.81496
     18       0.00000          -0.047731           -1.29882
     19       0.00000          -0.032696           -0.88969
     20       0.00000          -0.002607           -0.07095
     21       0.00000           0.004030            0.10965
     22       0.00000           0.015676            0.42658
     23       0.00000           0.027459            0.74719
     24       0.00000           0.030616            0.83310
     25       0.00000           0.033921            0.92303
     26       0.00000           0.058534            1.59279
     27       0.00000           0.132831            3.61452
     28       0.00000           0.164335            4.47178
     29       0.00000           0.188587            5.13172
     30       0.00000           0.204654            5.56892
     31       0.00000           0.239117            6.50672
     32       0.00000           0.279673            7.61029
     33       0.00000           0.280288            7.62703
     34       0.00000           0.298966            8.13527
     35       0.00000           0.303884            8.26909
     36       0.00000           0.315563            8.58690
     37       0.00000           0.404499           11.00698
     38       0.00000           0.445319           12.11774
     39       0.00000           0.508858           13.84674
     40       0.00000           0.522570           14.21986

  Highest occupied state (VBM) at    -10.51605096 eV
  | Occupation number:      2.00000000

  Lowest unoccupied state (CBM) at    -4.81496166 eV
  | Occupation number:      0.00000000

  Overall HOMO-LUMO gap:      5.70108929 eV.
  Calculating total energy contributions from superposition of free atom densities.

  Total energy components:
  | Sum of eigenvalues            :         -96.07511752 Ha       -2614.33696369 eV
  | XC energy correction          :         -23.66530670 Ha        -643.96575986 eV
  | XC potential correction       :          30.40061135 Ha         827.24272444 eV
  | Free-atom electrostatic energy:         -67.98798634 Ha       -1850.04723763 eV
  | Hartree energy correction     :           0.00000000 Ha           0.00000000 eV
  | vdW energy correction         :           0.00000000 Ha           0.00000000 eV
  | Entropy correction            :           0.00000000 Ha           0.00000000 eV
  | ---------------------------
  | Total energy                  :        -157.32779921 Ha       -4281.10723675 eV
  | Total energy, T -> 0          :        -157.32779921 Ha       -4281.10723675 eV  <-- do not rely on this value for anything but (periodic) metals
  | Electronic free energy        :        -157.32779921 Ha       -4281.10723675 eV

  Derived energy quantities:
  | Kinetic energy                :         154.20291459 Ha        4196.07480005 eV
  | Electrostatic energy          :        -287.86540710 Ha       -7833.21627694 eV
  | Energy correction for multipole
  | error in Hartree potential    :           0.00000000 Ha           0.00000000 eV
  | Sum of eigenvalues per atom                           :        -217.86141364 eV
  | Total energy (T->0) per atom                          :        -356.75893640 eV  <-- do not rely on this value for anything but (periodic) metals
  | Electronic free energy per atom                       :        -356.75893640 eV
  Initialize hartree_potential_storage
  Max. number of atoms included in rho_multipole:           12

  End scf initialization - timings             :  max(cpu_time)    wall_clock(cpu1)
  | Time for scf. initialization               :        0.432 s           0.430 s
  | Boundary condition initialization          :        0.000 s           0.001 s
  | Integration                                :        0.256 s           0.254 s
  | Solution of K.-S. eqns.                    :        0.012 s           0.012 s
  | Grid partitioning                          :        0.052 s           0.050 s
  | Preloading free-atom quantities on grid    :        0.004 s           0.003 s
  | Free-atom superposition energy             :        0.024 s           0.024 s
  | Total energy evaluation                    :        0.000 s           0.001 s

  Partial memory accounting:
  | Current value for overall tracked memory usage on task 0  :           0.179 MB
  | Peak value for overall tracked memory usage on task 0     :           0.525 MB after allocating wave
  | Largest tracked array allocation on task 0 so far         :           0.114 MB  when allocating H_times_psi
  Note:  These values currently only include a subset of arrays which are explicitly tracked.
  The "true" memory usage will be greater.
------------------------------------------------------------

------------------------------------------------------------
          Begin self-consistency iteration #    1

  Date     :  20180214, Time     :  164220.132
------------------------------------------------------------
  Evaluating new KS density.
  Integration grid: deviation in total charge (<rho> - N_e) =  -1.421085E-14
  Pulay mixing of updated and previous charge densities.

  Evaluating partitioned Hartree potential by multipole expansion.
  | Analytical far-field extrapolation by fixed multipoles:
  | Hartree multipole sum: apparent total charge =  -0.323518E-03
  Summing up the Hartree potential.
  Time summed over all CPUs for potential: real work        1.392 s, elapsed        1.424 s
  | RMS charge density error from multipole expansion :   0.135425E-02

  Integrating Hamiltonian matrix: batch-based integration.
  Time summed over all CPUs for integration: real work        1.406 s, elapsed        1.463 s

  Updating Kohn-Sham eigenvalues, eigenvectors, occupation numbers, and Fermi level.
  Solving generalized eigenproblem
  Updating Kohn-Sham eigenvalues and eigenfunctions.
  Solving real generalised eigenvalue problem by standard LAPACK (fast)

  Obtaining occupation numbers and chemical potential using ELSI.
  | Chemical potential (Fermi level):    -8.10069627eV
  Writing Kohn-Sham eigenvalues.

  State    Occupation    Eigenvalue [Ha]    Eigenvalue [eV]
      1       2.00000         -10.132248         -275.71250
      2       2.00000         -10.132248         -275.71250
      3       2.00000         -10.122273         -275.44107
      4       2.00000         -10.121622         -275.42334
      5       2.00000          -0.908223          -24.71400
      6       2.00000          -0.832651          -22.65759
      7       2.00000          -0.777001          -21.14327
      8       2.00000          -0.639968          -17.41440
      9       2.00000          -0.595633          -16.20799
     10       2.00000          -0.554951          -15.10099
     11       2.00000          -0.530957          -14.44809
     12       2.00000          -0.517584          -14.08417
     13       2.00000          -0.509144          -13.85453
     14       2.00000          -0.487342          -13.26125
     15       2.00000          -0.461959          -12.57054
     16       2.00000          -0.369215          -10.04685
     17       0.00000          -0.160306           -4.36215
     18       0.00000          -0.038730           -1.05390
     19       0.00000          -0.023317           -0.63448
     20       0.00000           0.006046            0.16452
     21       0.00000           0.020557            0.55939
     22       0.00000           0.025650            0.69797
     23       0.00000           0.038814            1.05618
     24       0.00000           0.040596            1.10468
     25       0.00000           0.044456            1.20972
     26       0.00000           0.069867            1.90118
     27       0.00000           0.145942            3.97128
     28       0.00000           0.174081            4.73698
     29       0.00000           0.200779            5.46347
     30       0.00000           0.215122            5.85377
     31       0.00000           0.252660            6.87522
     32       0.00000           0.290219            7.89725
     33       0.00000           0.291184            7.92353
     34       0.00000           0.309323            8.41710
     35       0.00000           0.321337            8.74402
     36       0.00000           0.325338            8.85290
     37       0.00000           0.416158           11.32423
     38       0.00000           0.458037           12.46382
     39       0.00000           0.519744           14.14295
     40       0.00000           0.535742           14.57827

  Highest occupied state (VBM) at    -10.04685212 eV
  | Occupation number:      2.00000000

  Lowest unoccupied state (CBM) at    -4.36215374 eV
  | Occupation number:      0.00000000

  Overall HOMO-LUMO gap:      5.68469838 eV.

  Total energy components:
  | Sum of eigenvalues            :         -95.38603688 Ha       -2595.58612553 eV
  | XC energy correction          :         -23.72575660 Ha        -645.61068542 eV
  | XC potential correction       :          30.47895082 Ha         829.37445003 eV
  | Free-atom electrostatic energy:         -67.98798634 Ha       -1850.04723763 eV
  | Hartree energy correction     :          -0.65752146 Ha         -17.89206939 eV
  | vdW energy correction         :           0.00000000 Ha           0.00000000 eV
  | Entropy correction            :           0.00000000 Ha           0.00000000 eV
  | ---------------------------
  | Total energy                  :        -157.27835046 Ha       -4279.76166795 eV
  | Total energy, T -> 0          :        -157.27835046 Ha       -4279.76166795 eV  <-- do not rely on this value for anything but (periodic) metals
  | Electronic free energy        :        -157.27835046 Ha       -4279.76166795 eV

  Derived energy quantities:
  | Kinetic energy                :         154.53300607 Ha        4205.05704613 eV
  | Electrostatic energy          :        -288.08559993 Ha       -7839.20802866 eV
  | Energy correction for multipole
  | error in Hartree potential    :           0.00234354 Ha           0.06377109 eV
  | Sum of eigenvalues per atom                           :        -216.29884379 eV
  | Total energy (T->0) per atom                          :        -356.64680566 eV  <-- do not rely on this value for anything but (periodic) metals
  | Electronic free energy per atom                       :        -356.64680566 eV

  Self-consistency convergence accuracy:
  | Change of charge density      :  0.4889E+00
  | Change of sum of eigenvalues  :  0.1875E+02 eV
  | Change of total energy        :  0.1346E+01 eV

  End self-consistency iteration #     1       :  max(cpu_time)    wall_clock(cpu1)
  | Time for this iteration                    :        0.552 s           0.549 s
  | Charge density update                      :        0.176 s           0.175 s
  | Density mixing                             :        0.004 s           0.002 s
  | Hartree multipole update                   :        0.012 s           0.011 s
  | Hartree multipole summation                :        0.176 s           0.176 s
  | Integration                                :        0.184 s           0.181 s
  | Solution of K.-S. eqns.                    :        0.004 s           0.002 s
  | Total energy evaluation                    :        0.000 s           0.001 s

  Partial memory accounting:
  | Current value for overall tracked memory usage on task 0  :           0.179 MB
  | Peak value for overall tracked memory usage on task 0     :           0.637 MB after allocating gradient_basis_wave
  | Largest tracked array allocation on task 0 so far         :           0.343 MB  when allocating gradient_basis_wave
  Note:  These values currently only include a subset of arrays which are explicitly tracked.
  The "true" memory usage will be greater.
------------------------------------------------------------

------------------------------------------------------------
          Begin self-consistency iteration #    2

  Date     :  20180214, Time     :  164220.682
------------------------------------------------------------
  Evaluating new KS density.
  Integration grid: deviation in total charge (<rho> - N_e) =   2.131628E-14
  Pulay mixing of updated and previous charge densities.

  Evaluating partitioned Hartree potential by multipole expansion.
  | Analytical far-field extrapolation by fixed multipoles:
  | Hartree multipole sum: apparent total charge =  -0.590905E-03
  Summing up the Hartree potential.
  Time summed over all CPUs for potential: real work        1.392 s, elapsed        1.398 s
  | RMS charge density error from multipole expansion :   0.132694E-01

  Integrating Hamiltonian matrix: batch-based integration.
  Time summed over all CPUs for integration: real work        1.409 s, elapsed        1.489 s

  Updating Kohn-Sham eigenvalues, eigenvectors, occupation numbers, and Fermi level.
  Solving generalized eigenproblem
  Updating Kohn-Sham eigenvalues and eigenfunctions.
  Solving real generalised eigenvalue problem by standard LAPACK (fast)

  Obtaining occupation numbers and chemical potential using ELSI.
  | Chemical potential (Fermi level):    -4.56167911eV
  Highest occupied state (VBM) at     -6.21201589 eV
  | Occupation number:      2.00000000

  Lowest unoccupied state (CBM) at    -0.68745804 eV
  | Occupation number:      0.00000000

  Overall HOMO-LUMO gap:      5.52455785 eV.

  Checking to see if s.c.f. parameters should be adjusted.
  The system likely has a gap. Increased the default Pulay mixing parameter (charge_mix_param). Value:   0.200000 .
  Kept the default occupation width. Value:   0.010000 eV.

  Total energy components:
  | Sum of eigenvalues            :         -89.67579825 Ha       -2440.20262650 eV
  | XC energy correction          :         -24.28018232 Ha        -660.69737684 eV
  | XC potential correction       :          31.19708162 Ha         848.91578332 eV
  | Free-atom electrostatic energy:         -67.98798634 Ha       -1850.04723763 eV
  | Hartree energy correction     :          -6.32947562 Ha        -172.23379471 eV
  | vdW energy correction         :           0.00000000 Ha           0.00000000 eV
  | Entropy correction            :           0.00000000 Ha           0.00000000 eV
  | ---------------------------
  | Total energy                  :        -157.07636090 Ha       -4274.26525237 eV
  | Total energy, T -> 0          :        -157.07636090 Ha       -4274.26525237 eV  <-- do not rely on this value for anything but (periodic) metals
  | Electronic free energy        :        -157.07636090 Ha       -4274.26525237 eV

  Derived energy quantities:
  | Kinetic energy                :         156.94852310 Ha        4270.78660884 eV
  | Electrostatic energy          :        -289.74470168 Ha       -7884.35448437 eV
  | Energy correction for multipole
  | error in Hartree potential    :           0.02213820 Ha           0.60241109 eV
  | Sum of eigenvalues per atom                           :        -203.35021888 eV
  | Total energy (T->0) per atom                          :        -356.18877103 eV  <-- do not rely on this value for anything but (periodic) metals
  | Electronic free energy per atom                       :        -356.18877103 eV

  Self-consistency convergence accuracy:
  | Change of charge density      :  0.4498E+00
  | Change of sum of eigenvalues  :  0.1554E+03 eV
  | Change of total energy        :  0.5496E+01 eV

  End self-consistency iteration #     2       :  max(cpu_time)    wall_clock(cpu1)
  | Time for this iteration                    :        0.552 s           0.548 s
  | Charge density update                      :        0.176 s           0.175 s
  | Density mixing                             :        0.004 s           0.003 s
  | Hartree multipole update                   :        0.012 s           0.010 s
  | Hartree multipole summation                :        0.172 s           0.173 s
  | Integration                                :        0.184 s           0.184 s
  | Solution of K.-S. eqns.                    :        0.004 s           0.002 s
  | Total energy evaluation                    :        0.000 s           0.001 s

  Partial memory accounting:
  | Current value for overall tracked memory usage on task 0  :           0.180 MB
  | Peak value for overall tracked memory usage on task 0     :           0.637 MB after allocating gradient_basis_wave
  | Largest tracked array allocation on task 0 so far         :           0.343 MB  when allocating gradient_basis_wave
  Note:  These values currently only include a subset of arrays which are explicitly tracked.
  The "true" memory usage will be greater.
------------------------------------------------------------

------------------------------------------------------------
          Begin self-consistency iteration #    3

  Date     :  20180214, Time     :  164221.231
------------------------------------------------------------
  Evaluating new KS density.
  Integration grid: deviation in total charge (<rho> - N_e) =   1.421085E-14
  Pulay mixing of updated and previous charge densities.

  Evaluating partitioned Hartree potential by multipole expansion.
  | Analytical far-field extrapolation by fixed multipoles:
  | Hartree multipole sum: apparent total charge =  -0.578966E-03
  Summing up the Hartree potential.
  Time summed over all CPUs for potential: real work        1.391 s, elapsed        1.416 s
  | RMS charge density error from multipole expansion :   0.165201E-01

  Integrating Hamiltonian matrix: batch-based integration.
  Time summed over all CPUs for integration: real work        1.411 s, elapsed        1.471 s

  Updating Kohn-Sham eigenvalues, eigenvectors, occupation numbers, and Fermi level.
  Solving generalized eigenproblem
  Updating Kohn-Sham eigenvalues and eigenfunctions.
  Solving real generalised eigenvalue problem by standard LAPACK (fast)

  Obtaining occupation numbers and chemical potential using ELSI.
  | Chemical potential (Fermi level):    -5.03084443eV
  Highest occupied state (VBM) at     -6.84833105 eV
  | Occupation number:      2.00000000

  Lowest unoccupied state (CBM) at    -1.30409168 eV
  | Occupation number:      0.00000000

  Overall HOMO-LUMO gap:      5.54423937 eV.

  Total energy components:
  | Sum of eigenvalues            :         -90.60713462 Ha       -2465.54557866 eV
  | XC energy correction          :         -24.24027578 Ha        -659.61146452 eV
  | XC potential correction       :          31.14174978 Ha         847.41012715 eV
  | Free-atom electrostatic energy:         -67.98798634 Ha       -1850.04723763 eV
  | Hartree energy correction     :          -5.37665364 Ha        -146.30618944 eV
  | vdW energy correction         :           0.00000000 Ha           0.00000000 eV
  | Entropy correction            :           0.00000000 Ha           0.00000000 eV
  | ---------------------------
  | Total energy                  :        -157.07030060 Ha       -4274.10034311 eV
  | Total energy, T -> 0          :        -157.07030060 Ha       -4274.10034311 eV  <-- do not rely on this value for anything but (periodic) metals
  | Electronic free energy        :        -157.07030060 Ha       -4274.10034311 eV

  Derived energy quantities:
  | Kinetic energy                :         156.30892427 Ha        4253.38223917 eV
  | Electrostatic energy          :        -289.13894910 Ha       -7867.87111776 eV
  | Energy correction for multipole
  | error in Hartree potential    :           0.02677571 Ha           0.72860406 eV
  | Sum of eigenvalues per atom                           :        -205.46213156 eV
  | Total energy (T->0) per atom                          :        -356.17502859 eV  <-- do not rely on this value for anything but (periodic) metals
  | Electronic free energy per atom                       :        -356.17502859 eV

  Self-consistency convergence accuracy:
  | Change of charge density      :  0.2108E+00
  | Change of sum of eigenvalues  : -0.2534E+02 eV
  | Change of total energy        :  0.1649E+00 eV

  End self-consistency iteration #     3       :  max(cpu_time)    wall_clock(cpu1)
  | Time for this iteration                    :        0.552 s           0.550 s
  | Charge density update                      :        0.176 s           0.175 s
  | Density mixing                             :        0.004 s           0.005 s
  | Hartree multipole update                   :        0.012 s           0.010 s
  | Hartree multipole summation                :        0.176 s           0.175 s
  | Integration                                :        0.184 s           0.182 s
  | Solution of K.-S. eqns.                    :        0.004 s           0.002 s
  | Total energy evaluation                    :        0.000 s           0.001 s

  Partial memory accounting:
  | Current value for overall tracked memory usage on task 0  :           0.180 MB
  | Peak value for overall tracked memory usage on task 0     :           0.638 MB after allocating gradient_basis_wave
  | Largest tracked array allocation on task 0 so far         :           0.343 MB  when allocating gradient_basis_wave
  Note:  These values currently only include a subset of arrays which are explicitly tracked.
  The "true" memory usage will be greater.
------------------------------------------------------------

------------------------------------------------------------
          Begin self-consistency iteration #    4

  Date     :  20180214, Time     :  164221.782
------------------------------------------------------------
  Evaluating new KS density.
  Integration grid: deviation in total charge (<rho> - N_e) =   7.105427E-15
  Pulay mixing of updated and previous charge densities.

  Evaluating partitioned Hartree potential by multipole expansion.
  | Analytical far-field extrapolation by fixed multipoles:
  | Hartree multipole sum: apparent total charge =  -0.652293E-03
  Summing up the Hartree potential.
  Time summed over all CPUs for potential: real work        1.394 s, elapsed        1.418 s
  | RMS charge density error from multipole expansion :   0.222430E-01

  Integrating Hamiltonian matrix: batch-based integration.
  Time summed over all CPUs for integration: real work        1.406 s, elapsed        1.470 s

  Updating Kohn-Sham eigenvalues, eigenvectors, occupation numbers, and Fermi level.
  Solving generalized eigenproblem
  Updating Kohn-Sham eigenvalues and eigenfunctions.
  Solving real generalised eigenvalue problem by standard LAPACK (fast)

  Obtaining occupation numbers and chemical potential using ELSI.
  | Chemical potential (Fermi level):    -4.40302850eV
  Highest occupied state (VBM) at     -6.20742857 eV
  | Occupation number:      2.00000000

  Lowest unoccupied state (CBM) at    -0.69475359 eV
  | Occupation number:      0.00000000

  Overall HOMO-LUMO gap:      5.51267498 eV.

  Total energy components:
  | Sum of eigenvalues            :         -89.70839339 Ha       -2441.08958536 eV
  | XC energy correction          :         -24.37730467 Ha        -663.34021041 eV
  | XC potential correction       :          31.31691229 Ha         852.17654181 eV
  | Free-atom electrostatic energy:         -67.98798634 Ha       -1850.04723763 eV
  | Hartree energy correction     :          -6.30324085 Ha        -171.51991043 eV
  | vdW energy correction         :           0.00000000 Ha           0.00000000 eV
  | Entropy correction            :           0.00000000 Ha           0.00000000 eV
  | ---------------------------
  | Total energy                  :        -157.06001295 Ha       -4273.82040203 eV
  | Total energy, T -> 0          :        -157.06001295 Ha       -4273.82040203 eV  <-- do not rely on this value for anything but (periodic) metals
  | Electronic free energy        :        -157.06001295 Ha       -4273.82040203 eV

  Derived energy quantities:
  | Kinetic energy                :         156.38021052 Ha        4255.32203660 eV
  | Electrostatic energy          :        -289.06291880 Ha       -7865.80222823 eV
  | Energy correction for multipole
  | error in Hartree potential    :           0.03448300 Ha           0.93833006 eV
  | Sum of eigenvalues per atom                           :        -203.42413211 eV
  | Total energy (T->0) per atom                          :        -356.15170017 eV  <-- do not rely on this value for anything but (periodic) metals
  | Electronic free energy per atom                       :        -356.15170017 eV

  Self-consistency convergence accuracy:
  | Change of charge density      :  0.1267E+00
  | Change of sum of eigenvalues  :  0.2446E+02 eV
  | Change of total energy        :  0.2799E+00 eV

  End self-consistency iteration #     4       :  max(cpu_time)    wall_clock(cpu1)
  | Time for this iteration                    :        0.552 s           0.551 s
  | Charge density update                      :        0.176 s           0.175 s
  | Density mixing                             :        0.008 s           0.006 s
  | Hartree multipole update                   :        0.012 s           0.010 s
  | Hartree multipole summation                :        0.176 s           0.175 s
  | Integration                                :        0.184 s           0.182 s
  | Solution of K.-S. eqns.                    :        0.004 s           0.002 s
  | Total energy evaluation                    :        0.000 s           0.001 s

  Partial memory accounting:
  | Current value for overall tracked memory usage on task 0  :           0.180 MB
  | Peak value for overall tracked memory usage on task 0     :           0.638 MB after allocating gradient_basis_wave
  | Largest tracked array allocation on task 0 so far         :           0.343 MB  when allocating gradient_basis_wave
  Note:  These values currently only include a subset of arrays which are explicitly tracked.
  The "true" memory usage will be greater.
------------------------------------------------------------

------------------------------------------------------------
          Begin self-consistency iteration #    5

  Date     :  20180214, Time     :  164222.334
------------------------------------------------------------
  Evaluating new KS density.
  Integration grid: deviation in total charge (<rho> - N_e) =   2.131628E-14
  Pulay mixing of updated and previous charge densities.

  Evaluating partitioned Hartree potential by multipole expansion.
  | Analytical far-field extrapolation by fixed multipoles:
  | Hartree multipole sum: apparent total charge =  -0.682753E-03
  Summing up the Hartree potential.
  Time summed over all CPUs for potential: real work        1.381 s, elapsed        1.391 s
  | RMS charge density error from multipole expansion :   0.229706E-01

  Integrating Hamiltonian matrix: batch-based integration.
  Time summed over all CPUs for integration: real work        1.408 s, elapsed        1.466 s

  Updating Kohn-Sham eigenvalues, eigenvectors, occupation numbers, and Fermi level.
  Solving generalized eigenproblem
  Updating Kohn-Sham eigenvalues and eigenfunctions.
  Solving real generalised eigenvalue problem by standard LAPACK (fast)

  Obtaining occupation numbers and chemical potential using ELSI.
  | Chemical potential (Fermi level):    -4.19349305eV
  Highest occupied state (VBM) at     -5.94308235 eV
  | Occupation number:      2.00000000

  Lowest unoccupied state (CBM) at    -0.43178446 eV
  | Occupation number:      0.00000000

  Overall HOMO-LUMO gap:      5.51129789 eV.

  Total energy components:
  | Sum of eigenvalues            :         -89.43421817 Ha       -2433.62889811 eV
  | XC energy correction          :         -24.40067109 Ha        -663.97604314 eV
  | XC potential correction       :          31.34722780 Ha         853.00146877 eV
  | Free-atom electrostatic energy:         -67.98798634 Ha       -1850.04723763 eV
  | Hartree energy correction     :          -6.58302366 Ha        -179.13318787 eV
  | vdW energy correction         :           0.00000000 Ha           0.00000000 eV
  | Entropy correction            :           0.00000000 Ha           0.00000000 eV
  | ---------------------------
  | Total energy                  :        -157.05867145 Ha       -4273.78389799 eV
  | Total energy, T -> 0          :        -157.05867145 Ha       -4273.78389799 eV  <-- do not rely on this value for anything but (periodic) metals
  | Electronic free energy        :        -157.05867145 Ha       -4273.78389799 eV

  Derived energy quantities:
  | Kinetic energy                :         156.34985208 Ha        4254.49594138 eV
  | Electrostatic energy          :        -289.00785244 Ha       -7864.30379622 eV
  | Energy correction for multipole
  | error in Hartree potential    :           0.03406822 Ha           0.92704334 eV
  | Sum of eigenvalues per atom                           :        -202.80240818 eV
  | Total energy (T->0) per atom                          :        -356.14865817 eV  <-- do not rely on this value for anything but (periodic) metals
  | Electronic free energy per atom                       :        -356.14865817 eV

  Self-consistency convergence accuracy:
  | Change of charge density      :  0.3396E-01
  | Change of sum of eigenvalues  :  0.7461E+01 eV
  | Change of total energy        :  0.3650E-01 eV

  End self-consistency iteration #     5       :  max(cpu_time)    wall_clock(cpu1)
  | Time for this iteration                    :        0.552 s           0.549 s
  | Charge density update                      :        0.176 s           0.174 s
  | Density mixing                             :        0.008 s           0.008 s
  | Hartree multipole update                   :        0.012 s           0.010 s
  | Hartree multipole summation                :        0.172 s           0.172 s
  | Integration                                :        0.184 s           0.182 s
  | Solution of K.-S. eqns.                    :        0.004 s           0.002 s
  | Total energy evaluation                    :        0.000 s           0.001 s

  Partial memory accounting:
  | Current value for overall tracked memory usage on task 0  :           0.180 MB
  | Peak value for overall tracked memory usage on task 0     :           0.638 MB after allocating gradient_basis_wave
  | Largest tracked array allocation on task 0 so far         :           0.343 MB  when allocating gradient_basis_wave
  Note:  These values currently only include a subset of arrays which are explicitly tracked.
  The "true" memory usage will be greater.
------------------------------------------------------------

------------------------------------------------------------
          Begin self-consistency iteration #    6

  Date     :  20180214, Time     :  164222.884
------------------------------------------------------------
  Evaluating new KS density.
  Integration grid: deviation in total charge (<rho> - N_e) =   2.842171E-14
  Pulay mixing of updated and previous charge densities.

  Evaluating partitioned Hartree potential by multipole expansion.
  | Analytical far-field extrapolation by fixed multipoles:
  | Hartree multipole sum: apparent total charge =  -0.701373E-03
  Summing up the Hartree potential.
  Time summed over all CPUs for potential: real work        1.385 s, elapsed        1.399 s
  | RMS charge density error from multipole expansion :   0.232486E-01

  Integrating Hamiltonian matrix: batch-based integration.
  Time summed over all CPUs for integration: real work        1.406 s, elapsed        1.459 s

  Updating Kohn-Sham eigenvalues, eigenvectors, occupation numbers, and Fermi level.
  Solving generalized eigenproblem
  Updating Kohn-Sham eigenvalues and eigenfunctions.
  Solving real generalised eigenvalue problem by standard LAPACK (fast)

  Obtaining occupation numbers and chemical potential using ELSI.
  | Chemical potential (Fermi level):    -4.11170105eV
  Highest occupied state (VBM) at     -5.86677249 eV
  | Occupation number:      2.00000000

  Lowest unoccupied state (CBM) at    -0.35594492 eV
  | Occupation number:      0.00000000

  Overall HOMO-LUMO gap:      5.51082756 eV.

  Total energy components:
  | Sum of eigenvalues            :         -89.34491752 Ha       -2431.19890385 eV
  | XC energy correction          :         -24.41015201 Ha        -664.23403216 eV
  | XC potential correction       :          31.35952337 Ha         853.33604806 eV
  | Free-atom electrostatic energy:         -67.98798634 Ha       -1850.04723763 eV
  | Hartree energy correction     :          -6.67492207 Ha        -181.63387095 eV
  | vdW energy correction         :           0.00000000 Ha           0.00000000 eV
  | Entropy correction            :           0.00000000 Ha           0.00000000 eV
  | ---------------------------
  | Total energy                  :        -157.05845458 Ha       -4273.77799653 eV
  | Total energy, T -> 0          :        -157.05845458 Ha       -4273.77799653 eV  <-- do not rely on this value for anything but (periodic) metals
  | Electronic free energy        :        -157.05845458 Ha       -4273.77799653 eV

  Derived energy quantities:
  | Kinetic energy                :         156.30611072 Ha        4253.30567857 eV
  | Electrostatic energy          :        -288.95441329 Ha       -7862.84964294 eV
  | Energy correction for multipole
  | error in Hartree potential    :           0.03332679 Ha           0.90686798 eV
  | Sum of eigenvalues per atom                           :        -202.59990865 eV
  | Total energy (T->0) per atom                          :        -356.14816638 eV  <-- do not rely on this value for anything but (periodic) metals
  | Electronic free energy per atom                       :        -356.14816638 eV

  Self-consistency convergence accuracy:
  | Change of charge density      :  0.1531E-01
  | Change of sum of eigenvalues  :  0.2430E+01 eV
  | Change of total energy        :  0.5901E-02 eV

  End self-consistency iteration #     6       :  max(cpu_time)    wall_clock(cpu1)
  | Time for this iteration                    :        0.552 s           0.552 s
  | Charge density update                      :        0.176 s           0.173 s
  | Density mixing                             :        0.012 s           0.010 s
  | Hartree multipole update                   :        0.012 s           0.012 s
  | Hartree multipole summation                :        0.172 s           0.173 s
  | Integration                                :        0.184 s           0.180 s
  | Solution of K.-S. eqns.                    :        0.004 s           0.002 s
  | Total energy evaluation                    :        0.000 s           0.000 s

  Partial memory accounting:
  | Current value for overall tracked memory usage on task 0  :           0.180 MB
  | Peak value for overall tracked memory usage on task 0     :           0.638 MB after allocating gradient_basis_wave
  | Largest tracked array allocation on task 0 so far         :           0.343 MB  when allocating gradient_basis_wave
  Note:  These values currently only include a subset of arrays which are explicitly tracked.
  The "true" memory usage will be greater.
------------------------------------------------------------

------------------------------------------------------------
          Begin self-consistency iteration #    7

  Date     :  20180214, Time     :  164223.436
------------------------------------------------------------
  Evaluating new KS density.
  Integration grid: deviation in total charge (<rho> - N_e) =  -7.105427E-15
  Pulay mixing of updated and previous charge densities.

  Evaluating partitioned Hartree potential by multipole expansion.
  | Analytical far-field extrapolation by fixed multipoles:
  | Hartree multipole sum: apparent total charge =  -0.705049E-03
  Summing up the Hartree potential.
  Time summed over all CPUs for potential: real work        1.390 s, elapsed        1.403 s
  | RMS charge density error from multipole expansion :   0.232320E-01

  Integrating Hamiltonian matrix: batch-based integration.
  Time summed over all CPUs for integration: real work        1.406 s, elapsed        1.462 s

  Updating Kohn-Sham eigenvalues, eigenvectors, occupation numbers, and Fermi level.
  Solving generalized eigenproblem
  Updating Kohn-Sham eigenvalues and eigenfunctions.
  Solving real generalised eigenvalue problem by standard LAPACK (fast)

  Obtaining occupation numbers and chemical potential using ELSI.
  | Chemical potential (Fermi level):    -4.09186511eV
  Highest occupied state (VBM) at     -5.84251936 eV
  | Occupation number:      2.00000000

  Lowest unoccupied state (CBM) at    -0.33195400 eV
  | Occupation number:      0.00000000

  Overall HOMO-LUMO gap:      5.51056536 eV.

  Total energy components:
  | Sum of eigenvalues            :         -89.31956442 Ha       -2430.50901092 eV
  | XC energy correction          :         -24.41171980 Ha        -664.27669392 eV
  | XC potential correction       :          31.36161219 Ha         853.39288793 eV
  | Free-atom electrostatic energy:         -67.98798634 Ha       -1850.04723763 eV
  | Hartree energy correction     :          -6.70075588 Ha        -182.33684468 eV
  | vdW energy correction         :           0.00000000 Ha           0.00000000 eV
  | Entropy correction            :           0.00000000 Ha           0.00000000 eV
  | ---------------------------
  | Total energy                  :        -157.05841425 Ha       -4273.77689922 eV
  | Total energy, T -> 0          :        -157.05841425 Ha       -4273.77689922 eV  <-- do not rely on this value for anything but (periodic) metals
  | Electronic free energy        :        -157.05841425 Ha       -4273.77689922 eV

  Derived energy quantities:
  | Kinetic energy                :         156.30483589 Ha        4253.27098849 eV
  | Electrostatic energy          :        -288.95153033 Ha       -7862.77119379 eV
  | Energy correction for multipole
  | error in Hartree potential    :           0.03308334 Ha           0.90024354 eV
  | Sum of eigenvalues per atom                           :        -202.54241758 eV
  | Total energy (T->0) per atom                          :        -356.14807494 eV  <-- do not rely on this value for anything but (periodic) metals
  | Electronic free energy per atom                       :        -356.14807494 eV

  Self-consistency convergence accuracy:
  | Change of charge density      :  0.6823E-02
  | Change of sum of eigenvalues  :  0.6899E+00 eV
  | Change of total energy        :  0.1097E-02 eV

  End self-consistency iteration #     7       :  max(cpu_time)    wall_clock(cpu1)
  | Time for this iteration                    :        0.556 s           0.554 s
  | Charge density update                      :        0.176 s           0.174 s
  | Density mixing                             :        0.012 s           0.012 s
  | Hartree multipole update                   :        0.012 s           0.011 s
  | Hartree multipole summation                :        0.176 s           0.173 s
  | Integration                                :        0.180 s           0.181 s
  | Solution of K.-S. eqns.                    :        0.004 s           0.002 s
  | Total energy evaluation                    :        0.000 s           0.001 s

  Partial memory accounting:
  | Current value for overall tracked memory usage on task 0  :           0.180 MB
  | Peak value for overall tracked memory usage on task 0     :           0.638 MB after allocating gradient_basis_wave
  | Largest tracked array allocation on task 0 so far         :           0.343 MB  when allocating gradient_basis_wave
  Note:  These values currently only include a subset of arrays which are explicitly tracked.
  The "true" memory usage will be greater.
------------------------------------------------------------

------------------------------------------------------------
          Begin self-consistency iteration #    8

  Date     :  20180214, Time     :  164223.991
------------------------------------------------------------
  Evaluating new KS density.
  Integration grid: deviation in total charge (<rho> - N_e) =  -3.552714E-15
  Pulay mixing of updated and previous charge densities.

  Evaluating partitioned Hartree potential by multipole expansion.
  | Analytical far-field extrapolation by fixed multipoles:
  | Hartree multipole sum: apparent total charge =  -0.715201E-03
  Summing up the Hartree potential.
  Time summed over all CPUs for potential: real work        1.391 s, elapsed        1.424 s
  | RMS charge density error from multipole expansion :   0.232847E-01

  Integrating Hamiltonian matrix: batch-based integration.
  Time summed over all CPUs for integration: real work        1.411 s, elapsed        1.467 s

  Updating Kohn-Sham eigenvalues, eigenvectors, occupation numbers, and Fermi level.
  Solving generalized eigenproblem
  Updating Kohn-Sham eigenvalues and eigenfunctions.
  Solving real generalised eigenvalue problem by standard LAPACK (fast)

  Obtaining occupation numbers and chemical potential using ELSI.
  | Chemical potential (Fermi level):    -4.03720186eV
  Highest occupied state (VBM) at     -5.77550231 eV
  | Occupation number:      2.00000000

  Lowest unoccupied state (CBM) at    -0.26693566 eV
  | Occupation number:      0.00000000

  Overall HOMO-LUMO gap:      5.50856664 eV.

  Total energy components:
  | Sum of eigenvalues            :         -89.24978800 Ha       -2428.61029780 eV
  | XC energy correction          :         -24.41813802 Ha        -664.45134256 eV
  | XC potential correction       :          31.37001359 Ha         853.62150144 eV
  | Free-atom electrostatic energy:         -67.98798634 Ha       -1850.04723763 eV
  | Hartree energy correction     :          -6.77246395 Ha        -184.28812056 eV
  | vdW energy correction         :           0.00000000 Ha           0.00000000 eV
  | Entropy correction            :           0.00000000 Ha           0.00000000 eV
  | ---------------------------
  | Total energy                  :        -157.05836273 Ha       -4273.77549711 eV
  | Total energy, T -> 0          :        -157.05836273 Ha       -4273.77549711 eV  <-- do not rely on this value for anything but (periodic) metals
  | Electronic free energy        :        -157.05836273 Ha       -4273.77549711 eV

  Derived energy quantities:
  | Kinetic energy                :         156.30464758 Ha        4253.26586451 eV
  | Electrostatic energy          :        -288.94487229 Ha       -7862.59001907 eV
  | Energy correction for multipole
  | error in Hartree potential    :           0.03264398 Ha           0.88828779 eV
  | Sum of eigenvalues per atom                           :        -202.38419148 eV
  | Total energy (T->0) per atom                          :        -356.14795809 eV  <-- do not rely on this value for anything but (periodic) metals
  | Electronic free energy per atom                       :        -356.14795809 eV

  Self-consistency convergence accuracy:
  | Change of charge density      :  0.5391E-02
  | Change of sum of eigenvalues  :  0.1899E+01 eV
  | Change of total energy        :  0.1402E-02 eV

  End self-consistency iteration #     8       :  max(cpu_time)    wall_clock(cpu1)
  | Time for this iteration                    :        0.560 s           0.560 s
  | Charge density update                      :        0.176 s           0.177 s
  | Density mixing                             :        0.016 s           0.012 s
  | Hartree multipole update                   :        0.012 s           0.011 s
  | Hartree multipole summation                :        0.176 s           0.176 s
  | Integration                                :        0.184 s           0.181 s
  | Solution of K.-S. eqns.                    :        0.004 s           0.002 s
  | Total energy evaluation                    :        0.000 s           0.001 s

  Partial memory accounting:
  | Current value for overall tracked memory usage on task 0  :           0.180 MB
  | Peak value for overall tracked memory usage on task 0     :           0.638 MB after allocating gradient_basis_wave
  | Largest tracked array allocation on task 0 so far         :           0.343 MB  when allocating gradient_basis_wave
  Note:  These values currently only include a subset of arrays which are explicitly tracked.
  The "true" memory usage will be greater.
------------------------------------------------------------

------------------------------------------------------------
          Begin self-consistency iteration #    9

  Date     :  20180214, Time     :  164224.552
------------------------------------------------------------
  Evaluating new KS density.
  Integration grid: deviation in total charge (<rho> - N_e) =  -7.105427E-15
  Pulay mixing of updated and previous charge densities.

  Evaluating partitioned Hartree potential by multipole expansion.
  | Analytical far-field extrapolation by fixed multipoles:
  | Hartree multipole sum: apparent total charge =  -0.717476E-03
  Summing up the Hartree potential.
  Time summed over all CPUs for potential: real work        1.388 s, elapsed        1.395 s
  | RMS charge density error from multipole expansion :   0.232972E-01

  Integrating Hamiltonian matrix: batch-based integration.
  Time summed over all CPUs for integration: real work        1.403 s, elapsed        1.486 s

  Updating Kohn-Sham eigenvalues, eigenvectors, occupation numbers, and Fermi level.
  Solving generalized eigenproblem
  Updating Kohn-Sham eigenvalues and eigenfunctions.
  Solving real generalised eigenvalue problem by standard LAPACK (fast)

  Obtaining occupation numbers and chemical potential using ELSI.
  | Chemical potential (Fermi level):    -4.02475932eV
  Highest occupied state (VBM) at     -5.76134375 eV
  | Occupation number:      2.00000000

  Lowest unoccupied state (CBM) at    -0.25345038 eV
  | Occupation number:      0.00000000

  Overall HOMO-LUMO gap:      5.50789337 eV.

  Total energy components:
  | Sum of eigenvalues            :         -89.23316879 Ha       -2428.15806599 eV
  | XC energy correction          :         -24.41988538 Ha        -664.49889053 eV
  | XC potential correction       :          31.37229057 Ha         853.68346142 eV
  | Free-atom electrostatic energy:         -67.98798634 Ha       -1850.04723763 eV
  | Hartree energy correction     :          -6.78961135 Ha        -184.75472517 eV
  | vdW energy correction         :           0.00000000 Ha           0.00000000 eV
  | Entropy correction            :           0.00000000 Ha           0.00000000 eV
  | ---------------------------
  | Total energy                  :        -157.05836129 Ha       -4273.77545791 eV
  | Total energy, T -> 0          :        -157.05836129 Ha       -4273.77545791 eV  <-- do not rely on this value for anything but (periodic) metals
  | Electronic free energy        :        -157.05836129 Ha       -4273.77545791 eV

  Derived energy quantities:
  | Kinetic energy                :         156.30744443 Ha        4253.34197063 eV
  | Electrostatic energy          :        -288.94592034 Ha       -7862.61853800 eV
  | Energy correction for multipole
  | error in Hartree potential    :           0.03257427 Ha           0.88639092 eV
  | Sum of eigenvalues per atom                           :        -202.34650550 eV
  | Total energy (T->0) per atom                          :        -356.14795483 eV  <-- do not rely on this value for anything but (periodic) metals
  | Electronic free energy per atom                       :        -356.14795483 eV

  Self-consistency convergence accuracy:
  | Change of charge density      :  0.1072E-02
  | Change of sum of eigenvalues  :  0.4522E+00 eV
  | Change of total energy        :  0.3920E-04 eV

  End self-consistency iteration #     9       :  max(cpu_time)    wall_clock(cpu1)
  | Time for this iteration                    :        0.560 s           0.557 s
  | Charge density update                      :        0.176 s           0.174 s
  | Density mixing                             :        0.016 s           0.013 s
  | Hartree multipole update                   :        0.012 s           0.011 s
  | Hartree multipole summation                :        0.172 s           0.172 s
  | Integration                                :        0.184 s           0.184 s
  | Solution of K.-S. eqns.                    :        0.004 s           0.002 s
  | Total energy evaluation                    :        0.000 s           0.001 s

  Partial memory accounting:
  | Current value for overall tracked memory usage on task 0  :           0.180 MB
  | Peak value for overall tracked memory usage on task 0     :           0.638 MB after allocating gradient_basis_wave
  | Largest tracked array allocation on task 0 so far         :           0.343 MB  when allocating gradient_basis_wave
  Note:  These values currently only include a subset of arrays which are explicitly tracked.
  The "true" memory usage will be greater.
------------------------------------------------------------

------------------------------------------------------------
          Begin self-consistency iteration #   10

  Date     :  20180214, Time     :  164225.110
------------------------------------------------------------
  Evaluating new KS density.
  Integration grid: deviation in total charge (<rho> - N_e) =   0.000000E+00
  Pulay mixing of updated and previous charge densities.

  Evaluating partitioned Hartree potential by multipole expansion.
  | Analytical far-field extrapolation by fixed multipoles:
  | Hartree multipole sum: apparent total charge =  -0.717407E-03
  Summing up the Hartree potential.
  Time summed over all CPUs for potential: real work        1.390 s, elapsed        1.414 s
  | RMS charge density error from multipole expansion :   0.232986E-01

  Integrating Hamiltonian matrix: batch-based integration.
  Time summed over all CPUs for integration: real work        1.405 s, elapsed        1.462 s

[...]
  |   Hirshfeld dipole moment :      0.08855054
  |   Hirshfeld second moments:      0.09557813       0.01040795      -0.00041802
  |                                  0.01040795       0.09938310      -0.00336881
  |                                 -0.00041802      -0.00336881       0.10987714
  ----------------------------------------------------------------------
  | Atom     8: H
  |   Hirshfeld charge        :      0.03734290
  |   Free atom volume        :      9.95071624
  |   Hirshfeld volume        :      6.40287532
  |   Hirshfeld dipole vector :     -0.00000000      -0.04489790       0.07926682
  |   Hirshfeld dipole moment :      0.09109912
  |   Hirshfeld second moments:      0.09648590      -0.00000000       0.00000000
  |                                 -0.00000000       0.09910286       0.00879719
  |                                  0.00000000       0.00879719       0.09336325
  ----------------------------------------------------------------------
  | Atom     9: H
  |   Hirshfeld charge        :      0.03734290
  |   Free atom volume        :      9.95071624
  |   Hirshfeld volume        :      6.40287532
  |   Hirshfeld dipole vector :      0.00000000       0.04489790       0.07926682
  |   Hirshfeld dipole moment :      0.09109912
  |   Hirshfeld second moments:      0.09648590       0.00000000      -0.00000000
  |                                  0.00000000       0.09910286      -0.00879719
  |                                 -0.00000000      -0.00879719       0.09336325
  ----------------------------------------------------------------------
  | Atom    10: H
  |   Hirshfeld charge        :      0.04042949
  |   Free atom volume        :      9.95071624
  |   Hirshfeld volume        :      6.38896496
  |   Hirshfeld dipole vector :     -0.00000000      -0.03420661      -0.07802014
  |   Hirshfeld dipole moment :      0.08518940
  |   Hirshfeld second moments:      0.11008871      -0.00000000       0.00000000
  |                                 -0.00000000       0.08813031      -0.00754462
  |                                  0.00000000      -0.00754462       0.09004849
  ----------------------------------------------------------------------
  | Atom    11: H
  |   Hirshfeld charge        :      0.04326371
  |   Free atom volume        :      9.95071624
  |   Hirshfeld volume        :      6.12738685
  |   Hirshfeld dipole vector :     -0.06980144       0.05448634       0.00044304
  |   Hirshfeld dipole moment :      0.08855054
  |   Hirshfeld second moments:      0.09557813       0.01040795       0.00041802
  |                                  0.01040795       0.09938310       0.00336881
  |                                  0.00041802       0.00336881       0.10987714
  ----------------------------------------------------------------------
  | Atom    12: H
  |   Hirshfeld charge        :      0.04326371
  |   Free atom volume        :      9.95071624
  |   Hirshfeld volume        :      6.12738685
  |   Hirshfeld dipole vector :      0.06980144       0.05448634       0.00044304
  |   Hirshfeld dipole moment :      0.08855054
  |   Hirshfeld second moments:      0.09557813      -0.01040795      -0.00041802
  |                                 -0.01040795       0.09938310       0.00336881
  |                                 -0.00041802       0.00336881       0.10987714
  ----------------------------------------------------------------------


  Total energy components:
  | Sum of eigenvalues            :         -89.23303088 Ha       -2428.15431338 eV
  | XC energy correction          :         -24.42001165 Ha        -664.50232640 eV
  | XC potential correction       :          31.37245044 Ha         853.68781176 eV
  | Free-atom electrostatic energy:         -67.98798634 Ha       -1850.04723763 eV
  | Hartree energy correction     :          -6.78978362 Ha        -184.75941279 eV
  | vdW energy correction         :          -0.00229189 Ha          -0.06236550 eV
  | Entropy correction            :           0.00000000 Ha           0.00000000 eV
  | ---------------------------
  | Total energy                  :        -157.06065393 Ha       -4273.83784394 eV
  | Total energy, T -> 0          :        -157.06065393 Ha       -4273.83784394 eV  <-- do not rely on this value for anything but (periodic) metals
  | Electronic free energy        :        -157.06065393 Ha       -4273.83784394 eV

  Derived energy quantities:
  | Kinetic energy                :         156.30806587 Ha        4253.35888075 eV
  | Electrostatic energy          :        -288.94641626 Ha       -7862.63203280 eV
  | Energy correction for multipole
  | error in Hartree potential    :           0.03258359 Ha           0.88664459 eV
  | Sum of eigenvalues per atom                           :        -202.34619278 eV
  | Total energy (T->0) per atom                          :        -356.15315366 eV  <-- do not rely on this value for anything but (periodic) metals
  | Electronic free energy per atom                       :        -356.15315366 eV

  atomic forces [eV/Ang]:
  -----------------------
  atom #    1
   Hellmann-Feynman              : -0.454228E-12  0.368949E+00  0.384420E+00
   Ionic forces                  :  0.000000E+00  0.000000E+00  0.000000E+00
   Multipole                     : -0.970083E-14 -0.600573E+00 -0.635133E+00
   Pulay + GGA                   :  0.300436E-12  0.230530E+00  0.241744E+00
   Van der Waals                 : -0.348449E-18 -0.140770E-01  0.319882E-02
   ----------------------------------------------------------------
   Total forces(   1)            : -0.163494E-12 -0.151718E-01 -0.577034E-02
  atom #    2
   Hellmann-Feynman              : -0.107726E-14  0.168955E+01  0.119395E+00
   Ionic forces                  :  0.000000E+00  0.000000E+00  0.000000E+00
   Multipole                     :  0.308197E-13  0.631017E-02  0.378273E+00
   Pulay + GGA                   : -0.188397E-12 -0.179081E+01 -0.501105E+00
   Van der Waals                 : -0.522674E-18  0.792208E-03  0.518672E-02
   ----------------------------------------------------------------
   Total forces(   2)            : -0.158655E-12 -0.941639E-01  0.174988E-02
  atom #    3
   Hellmann-Feynman              : -0.147221E-12 -0.168955E+01  0.119395E+00
   Ionic forces                  :  0.000000E+00  0.000000E+00  0.000000E+00
   Multipole                     :  0.280990E-14 -0.631017E-02  0.378273E+00
   Pulay + GGA                   : -0.228360E-13  0.179081E+01 -0.501105E+00
   Van der Waals                 : -0.174225E-18 -0.792208E-03  0.518672E-02
   ----------------------------------------------------------------
   Total forces(   3)            : -0.167247E-12  0.941639E-01  0.174988E-02
  atom #    4
   Hellmann-Feynman              :  0.112080E-12 -0.368949E+00  0.384420E+00
   Ionic forces                  :  0.000000E+00  0.000000E+00  0.000000E+00
   Multipole                     :  0.364841E-13  0.600573E+00 -0.635133E+00
   Pulay + GGA                   : -0.513810E-13 -0.230530E+00  0.241744E+00
   Van der Waals                 : -0.194642E-18  0.140770E-01  0.319882E-02
   ----------------------------------------------------------------
   Total forces(   4)            :  0.971829E-13  0.151718E-01 -0.577034E-02
  atom #    5
   Hellmann-Feynman              : -0.438203E-14  0.115546E+00  0.105945E-01
   Ionic forces                  :  0.000000E+00  0.000000E+00  0.000000E+00
   Multipole                     :  0.975658E-16 -0.114886E-01 -0.134321E+00
   Pulay + GGA                   : -0.192344E-14 -0.774657E-01  0.985595E-01
   Van der Waals                 : -0.217781E-18 -0.979267E-02 -0.477635E-02
   ----------------------------------------------------------------
   Total forces(   5)            : -0.620812E-14  0.167986E-01 -0.299429E-01
  atom #    6
   Hellmann-Feynman              : -0.389289E-01 -0.177519E-01  0.430090E-01
   Ionic forces                  :  0.000000E+00  0.000000E+00  0.000000E+00
   Multipole                     : -0.634408E-01 -0.770522E-01 -0.389120E-01
   Pulay + GGA                   :  0.777262E-01  0.751056E-01 -0.484664E-03
   Van der Waals                 : -0.613297E-03  0.415094E-02 -0.329849E-02
   ----------------------------------------------------------------
   Total forces(   6)            : -0.252569E-01 -0.155476E-01  0.313836E-03
  atom #    7
   Hellmann-Feynman              :  0.389289E-01 -0.177519E-01  0.430090E-01
   Ionic forces                  :  0.000000E+00  0.000000E+00  0.000000E+00
   Multipole                     :  0.634408E-01 -0.770522E-01 -0.389120E-01
   Pulay + GGA                   : -0.777262E-01  0.751056E-01 -0.484664E-03
   Van der Waals                 :  0.613297E-03  0.415094E-02 -0.329849E-02
   ----------------------------------------------------------------
   Total forces(   7)            :  0.252569E-01 -0.155476E-01  0.313836E-03
  atom #    8
   Hellmann-Feynman              :  0.116515E-13 -0.620960E-01 -0.257837E-01
   Ionic forces                  :  0.000000E+00  0.000000E+00  0.000000E+00
   Multipole                     :  0.334511E-15 -0.172245E-01  0.150166E+00
   Pulay + GGA                   : -0.208289E-13  0.587562E-01 -0.947776E-01
   Van der Waals                 :  0.675121E-18  0.511549E-02  0.298780E-02
   ----------------------------------------------------------------
   Total forces(   8)            : -0.884218E-14 -0.154489E-01  0.325922E-01
  atom #    9
   Hellmann-Feynman              : -0.729611E-14  0.620960E-01 -0.257837E-01
   Ionic forces                  :  0.000000E+00  0.000000E+00  0.000000E+00
   Multipole                     : -0.780527E-16  0.172245E-01  0.150166E+00
   Pulay + GGA                   : -0.134251E-13 -0.587562E-01 -0.947776E-01
   Van der Waals                 :  0.348449E-18 -0.511549E-02  0.298780E-02
   ----------------------------------------------------------------
   Total forces(   9)            : -0.207989E-13  0.154489E-01  0.325922E-01
  atom #   10
   Hellmann-Feynman              :  0.172431E-13 -0.115546E+00  0.105945E-01
   Ionic forces                  :  0.000000E+00  0.000000E+00  0.000000E+00
   Multipole                     : -0.298273E-15  0.114886E-01 -0.134321E+00
   Pulay + GGA                   : -0.229698E-13  0.774657E-01  0.985595E-01
   Van der Waals                 : -0.544452E-18  0.979267E-02 -0.477635E-02
   ----------------------------------------------------------------
   Total forces(  10)            : -0.602554E-14 -0.167986E-01 -0.299429E-01
  atom #   11
   Hellmann-Feynman              : -0.389289E-01  0.177519E-01  0.430090E-01
   Ionic forces                  :  0.000000E+00  0.000000E+00  0.000000E+00
   Multipole                     : -0.634408E-01  0.770522E-01 -0.389120E-01
   Pulay + GGA                   :  0.777262E-01 -0.751056E-01 -0.484664E-03
   Van der Waals                 : -0.613297E-03 -0.415094E-02 -0.329849E-02
   ----------------------------------------------------------------
   Total forces(  11)            : -0.252569E-01  0.155476E-01  0.313836E-03
  atom #   12
   Hellmann-Feynman              :  0.389289E-01  0.177519E-01  0.430090E-01
   Ionic forces                  :  0.000000E+00  0.000000E+00  0.000000E+00
   Multipole                     :  0.634408E-01  0.770522E-01 -0.389120E-01
   Pulay + GGA                   : -0.777262E-01 -0.751056E-01 -0.484664E-03
   Van der Waals                 :  0.613297E-03 -0.415094E-02 -0.329849E-02
   ----------------------------------------------------------------
   Total forces(  12)            :  0.252569E-01  0.155476E-01  0.313836E-03

  Timings for VdW correction (Tkatchenko-Scheffler 2009 or later):
  | CPU time:        0.044 s, Wall clock time:        0.046 s.
  Removing unitary transformations (pure translations, rotations) from forces on atoms.
  Atomic forces before filtering:
  | Net force on center of mass :  -0.420392E-12 -0.476255E-12 -0.148702E-02 eV/A
  | Net torque on center of mass:  -0.107281E-11 -0.252156E-12 -0.311359E-12 eV
  Atomic forces after filtering:
  | Net force on center of mass :   0.557519E-17 -0.557519E-17 -0.174225E-17 eV/A
  | Net torque on center of mass:  -0.118011E-16 -0.723737E-17  0.000000E+00 eV

  Energy and forces in a compact form:
  | Total energy uncorrected      :         -0.427383784394173E+04 eV
  | Total energy corrected        :         -0.427383784394173E+04 eV  <-- do not rely on this value for anything but (periodic) metals
  | Electronic free energy        :         -0.427383784394173E+04 eV
  Total atomic forces (unitary forces cleaned) [eV/Ang]:
  |   1         -0.120740834426849E-12         -0.151717789508044E-01         -0.564642416207514E-02
  |   2         -0.104505587617762E-12         -0.941638916751686E-01          0.187380142868980E-02
  |   3         -0.125283045468814E-12          0.941638916751627E-01          0.187380142947994E-02
  |   4          0.111048964134212E-12          0.151717789504098E-01         -0.564642416279148E-02
  |   5          0.157192495954992E-13          0.167986257584592E-01         -0.298189701574297E-01
  |   6         -0.252569205928359E-01         -0.155475796820472E-01          0.437753677662001E-03
  |   7          0.252569205929555E-01         -0.155475796820293E-01          0.437753677624956E-03
  |   8          0.660857310196517E-13         -0.154488504871703E-01          0.327160855353590E-01
  |   9          0.328951896624297E-13          0.154488504871776E-01          0.327160855354215E-01
  |  10         -0.330924160010848E-14         -0.167986257583623E-01         -0.298189701574319E-01
  |  11         -0.252569205929363E-01          0.155475796821695E-01          0.437753677765637E-03
  |  12          0.252569205929448E-01          0.155475796822033E-01          0.437753677725401E-03

  ------------------------------------ 
  Start decomposition of the XC Energy 
  ------------------------------------ 
  X and C from original XC functional choice 
  Hartree-Fock Energy :          0.000000000 Ha              0.000000000 eV
  X Energy            :        -23.403008810 Ha           -636.828271199 eV
  C Energy            :         -1.017002836 Ha            -27.674055197 eV
  Total XC Energy     :        -24.420011646 Ha           -664.502326397 eV
  ------------------------------------ 
  LDA X and C from self-consistent density 
  X Energy LDA        :        -21.156958440 Ha           -575.710130958 eV
  C Energy LDA        :         -1.975023672 Ha            -53.743128524 eV
  ------------------------------------ 
  End decomposition of the XC Energy 
  ------------------------------------ 

------------------------------------------------------------

------------------------------------------------------------------------------
  Final output of selected total energy values:

  The following output summarizes some interesting total energy values
  at the end of a run (AFTER all relaxation, molecular dynamics, etc.).

  | Total energy of the DFT / Hartree-Fock s.c.f. calculation      :          -4273.837843942 eV
  | Final zero-broadening corrected energy (caution - metals only) :          -4273.837843942 eV
  | For reference only, the value of 1 Hartree used in FHI-aims is :             27.211384500 eV

  Before relying on these values, please be sure to understand exactly which
  total energy value is referred to by a given number. Different objects may
  all carry the same name 'total energy'. Definitions:

  Total energy of the DFT / Hartree-Fock s.c.f. calculation:
  | Note that this energy does not include ANY quantities calculated after the
  | s.c.f. cycle, in particular not ANY RPA, MP2, etc. many-body perturbation terms.

  Final zero-broadening corrected energy:
  | For metallic systems only, a broadening of the occupation numbers at the Fermi
  | level can be extrapolated back to zero broadening by an electron-gas inspired
  | formula. For all systems that are not real metals, this value can be
  | meaningless and should be avoided.

------------------------------------------------------------------------------
  Methods described in the following list of references were used in this FHI-aims run.
  If you publish the results, please make sure to cite these reference if they apply.
  FHI-aims is an academic code, and for our developers (often, Ph.D. students
  and postdocs), scientific credit in the community is essential.
  Thank you for helping us!

  For any use of FHI-aims, please cite:

    Volker Blum, Ralf Gehrke, Felix Hanke, Paula Havu, Ville Havu,
    Xinguo Ren, Karsten Reuter, and Matthias Scheffler
    'Ab initio molecular simulations with numeric atom-centered orbitals'
    Computer Physics Communications 180, 2175-2196 (2009)
    http://dx.doi.org/10.1016/j.cpc.2009.06.022


  For the real-space grid partitioning and parallelization used in this calculation, please cite:

    Ville Havu, Volker Blum, Paula Havu, and Matthias Scheffler,
    'Efficient O(N) integration for all-electron electronic structure calculation'
    'using numerically tabulated basis functions'
    Journal of Computational Physics 228, 8367-8379 (2009).
    http://dx.doi.org/10.1016/j.jcp.2009.08.008

  Of course, there are many other important community references, e.g., those cited in the
  above references. Our list is limited to references that describe implementations in the
  FHI-aims code. The reason is purely practical (length of this list) - please credit others as well.

------------------------------------------------------------
          Leaving FHI-aims.
          Date     :  20180214, Time     :  164229.398

          Computational steps:
          | Number of self-consistency cycles          :           15
          | Number of SCF (re)initializations          :            1

          Detailed time accounting                     :  max(cpu_time)    wall_clock(cpu1)
          | Total time                                 :        9.844 s           9.860 s
          | Preparation time                           :        0.144 s           0.154 s
          | Boundary condition initalization           :        0.000 s           0.001 s
          | Grid partitioning                          :        0.052 s           0.050 s
          | Preloading free-atom quantities on grid    :        0.004 s           0.003 s
          | Free-atom superposition energy             :        0.024 s           0.024 s
          | Total time for integrations                :        3.000 s           2.975 s
          | Total time for solution of K.-S. equations :        0.072 s           0.045 s
          | Total time for density & force components  :        3.044 s           3.021 s
          | Total time for mixing                      :        0.180 s           0.155 s
          | Total time for Hartree multipole update    :        0.180 s           0.157 s
          | Total time for Hartree multipole sum       :        3.096 s           3.084 s
          | Total time for total energy evaluation     :        0.008 s           0.017 s
          | Total time for vdW correction              :        0.044 s           0.046 s

          Partial memory accounting:
          | Residual value for overall tracked memory usage across tasks :           0.000 MB (should be 0.000 MB)
          | Peak values for overall tracked memory usage (after allocating hessian_basis_wave):
          |   Minimum:        1.439 MB (on task 1)
          |   Maximum:        1.439 MB (on task 1)
          |   Average:        1.439 MB
          | Largest tracked array allocation (hessian_basis_wave):
          |   Minimum:        0.687 MB (on task 1)
          |   Maximum:        0.687 MB (on task 1)
          |   Average:        0.687 MB
          Note:  These values currently only include a subset of arrays which are explicitly tracked.
          The "true" memory usage will be greater.

          Have a nice day.
------------------------------------------------------------
