  MPI-parallelism will be employed.
------------------------------------------------------------
          Invoking FHI-aims ...

          When using FHI-aims, please cite the following reference:

          Volker Blum, Ralf Gehrke, Felix Hanke, Paula Havu,
          Ville Havu, Xinguo Ren, Karsten Reuter, and Matthias Scheffler,
          'Ab Initio Molecular Simulations with Numeric Atom-Centered Orbitals',
          Computer Physics Communications 180, 2175-2196 (2009)

          For any questions about FHI-aims, please visit the aimsclub website
          with its forums and wiki. Contributions to both the forums and the
          wiki are warmly encouraged - they are for you, and everyone is welcome there.

------------------------------------------------------------



  Date     :  20190817, Time     :  153604.259
  Time zero on CPU 1             :   0.498640000000000E-01  s.
  Internal wall clock time zero  :           335288164.259  s.

  FHI-aims created a unique identifier for this run for later identification
  aims_uuid : 3C64BFE2-B44D-457D-A646-A0F0BD218ED8

  Build configuration of the current instance of FHI-aims
  -------------------------------------------------------
  FHI-aims version      : 190813
  Commit number         : 3da7baeb3
  CMake host system     : Linux-4.4.180-94.97-default
  CMake version         : 3.5.2
  Fortran compiler      : /mpcdf/soft/SLE_12_SP3/packages/x86_64/intel_parallel_studio/2018.4/compilers_and_libraries_2018.5.274/linux/mpi/bin64/mpiifort (Intel) version 18.0.5.20180823
  Fortran compiler flags: -O3 -ip -fp-model precise
  C compiler            : /mpcdf/soft/SLE_12_SP3/packages/skylake/intel/18.0.5/bin/icc (Intel) version 18.0.5.20180823
  C compiler flags      : -O3 -ip -fp-model precise
  Architecture          :
  Using MPI
  Using Scalapack
  Using C files
  Using SPGlib
  Using i-PI
  Linking against: /mpcdf/soft/SLE_12_SP3/packages/x86_64/anaconda/3.5.1.0/lib/libmkl_intel_lp64.so
                   /mpcdf/soft/SLE_12_SP3/packages/x86_64/anaconda/3.5.1.0/lib/libmkl_sequential.so
                   /mpcdf/soft/SLE_12_SP3/packages/x86_64/anaconda/3.5.1.0/lib/libmkl_core.so
                   /mpcdf/soft/SLE_12_SP3/packages/x86_64/anaconda/3.5.1.0/lib/libmkl_blacs_intelmpi_lp64.so
                   /mpcdf/soft/SLE_12_SP3/packages/x86_64/anaconda/3.5.1.0/lib/libmkl_scalapack_lp64.so

  Using        8 parallel tasks.
  Task        0 on host co1631 reporting.
  Task        1 on host co1631 reporting.
  Task        2 on host co1631 reporting.
  Task        3 on host co1631 reporting.
  Task        4 on host co1631 reporting.
  Task        5 on host co1631 reporting.
  Task        6 on host co1631 reporting.
  Task        7 on host co1631 reporting.

  Performing system and environment tests:
  | Environment variable OMP_NUM_THREADS correctly set to 1.
  | Maximum stacksize for task 0: unlimited
  | Maximum stacksize for task 1: unlimited
  | Maximum stacksize for task 2: unlimited
  | Maximum stacksize for task 3: unlimited
  | Maximum stacksize for task 4: unlimited
  | Maximum stacksize for task 5: unlimited
  | Maximum stacksize for task 6: unlimited
  | Maximum stacksize for task 7: unlimited
  | Current stacksize for task 0: unlimited
  | Current stacksize for task 1: unlimited
  | Current stacksize for task 2: unlimited
  | Current stacksize for task 3: unlimited
  | Current stacksize for task 4: unlimited
  | Current stacksize for task 5: unlimited
  | Current stacksize for task 6: unlimited
  | Current stacksize for task 7: unlimited
  | Checking for scalapack...
  | Testing pdtran()...
  | All pdtran() tests passed.

  Obtaining array dimensions for all initial allocations:
  
  -----------------------------------------------------------------------
  Parsing control.in (first pass over file, find array dimensions only).
  The contents of control.in will be repeated verbatim below
  unless switched off by setting 'verbatim_writeout .false.' .
  in the first line of control.in .
  -----------------------------------------------------------------------
  
  #=====================================================
  #FHI-aims file: ./control.in
  #Created using the Atomic Simulation Environment (ASE)
  #
  #List of parameters used to initialize the calculator:
  #=====================================================
  fo_dft                             final
  charge_mix_param                   0.5
  KS_method                          serial
  sc_accuracy_rho                    1E-4
  relativistic                       none
  xc                                 blyp
  charge                             1
  mixer                              pulay
  sc_accuracy_etot                   1E-6
  sc_accuracy_eev                    1E-2
  fo_orbitals                        8 8 1 1 hole
  n_max_pulay                        10
  fo_folders                         frag1 frag2
  packed_matrix_format               none
  occupation_type                    gaussian 0.01
  default_initial_moment             1
  spin                               collinear
  #=======================================================
  
  ################################################################################
  #
  #  FHI-aims code project
  #  VB, Fritz-Haber Institut, 2009
  #
  #  Suggested "light" defaults for C atom (to be pasted into control.in file)
  #  Be sure to double-check any results obtained with these settings for post-processing,
  #  e.g., with the "tight" defaults and larger basis sets.
  #
  ################################################################################
    species        C
  #     global species definitions
      nucleus             6
      mass                12.0107
  #
      l_hartree           4
  #
      cut_pot             3.5  1.5  1.0
      basis_dep_cutoff    1e-4
  #
      radial_base         34 5.0
      radial_multiplier   1
      angular_grids specified
        division   0.3326   50
        division   0.5710  110
        division   0.7727  194
        division   0.8772  302
  #      division   0.9334  434
  #      division   0.9625  590
  #      division   0.9924  770
  #      division   1.0230  974
  #      division   1.4589 1202
  #     outer_grid  974
       outer_grid 302
  ################################################################################
  #
  #  Definition of "minimal" basis
  #
  ################################################################################
  #     valence basis states
      valence      2  s   2.
      valence      2  p   2.
  #     ion occupancy
      ion_occ      2  s   1.
      ion_occ      2  p   1.
  ################################################################################
  #
  #  Suggested additional basis functions. For production calculations,
  #  uncomment them one after another (the most important basis functions are
  #  listed first).
  #
  #  Constructed for dimers: 1.0 A, 1.25 A, 1.5 A, 2.0 A, 3.0 A
  #
  ################################################################################
  #  "First tier" - improvements: -1214.57 meV to -155.61 meV
       hydro 2 p 1.7
       hydro 3 d 6
       hydro 2 s 4.9
  #  "Second tier" - improvements: -67.75 meV to -5.23 meV
  #     hydro 4 f 9.8
  #     hydro 3 p 5.2
  #     hydro 3 s 4.3
  #     hydro 5 g 14.4
  #     hydro 3 d 6.2
  #  "Third tier" - improvements: -2.43 meV to -0.60 meV
  #     hydro 2 p 5.6
  #     hydro 2 s 1.4
  #     hydro 3 d 4.9
  #     hydro 4 f 11.2
  #  "Fourth tier" - improvements: -0.39 meV to -0.18 meV
  #     hydro 2 p 2.1
  #     hydro 5 g 16.4
  #     hydro 4 d 13.2
  #     hydro 3 s 13.6
  #     hydro 4 f 17.6
  #  Further basis functions - improvements: -0.08 meV and below
  #     hydro 3 s 2
  #     hydro 3 p 6
  #     hydro 4 d 20
  ################################################################################
  #
  #  FHI-aims code project
  #  VB, Fritz-Haber Institut, 2009
  #
  #  Suggested "light" defaults for H atom (to be pasted into control.in file)
  #  Be sure to double-check any results obtained with these settings for post-processing,
  #  e.g., with the "tight" defaults and larger basis sets.
  #
  ################################################################################
    species        H
  #     global species definitions
      nucleus             1
      mass                1.00794
  #
      l_hartree           4
  #
      cut_pot             3.5  1.5  1.0
      basis_dep_cutoff    1e-4
  #
      radial_base         24 5.0
      radial_multiplier   1
      angular_grids       specified
        division   0.2421   50
        division   0.3822  110
        division   0.4799  194
        division   0.5341  302
  #      division   0.5626  434
  #      division   0.5922  590
  #      division   0.6542  770
  #      division   0.6868 1202
  #      outer_grid  770
        outer_grid  302
  ################################################################################
  #
  #  Definition of "minimal" basis
  #
  ################################################################################
  #     valence basis states
      valence      1  s   1.
  #     ion occupancy
      ion_occ      1  s   0.5
  ################################################################################
  #
  #  Suggested additional basis functions. For production calculations,
  #  uncomment them one after another (the most important basis functions are
  #  listed first).
  #
  #  Basis constructed for dimers: 0.5 A, 0.7 A, 1.0 A, 1.5 A, 2.5 A
  #
  ################################################################################
  #  "First tier" - improvements: -1014.90 meV to -62.69 meV
       hydro 2 s 2.1
       hydro 2 p 3.5
  #  "Second tier" - improvements: -12.89 meV to -1.83 meV
  #     hydro 1 s 0.85
  #     hydro 2 p 3.7
  #     hydro 2 s 1.2
  #     hydro 3 d 7
  #  "Third tier" - improvements: -0.25 meV to -0.12 meV
  #     hydro 4 f 11.2
  #     hydro 3 p 4.8
  #     hydro 4 d 9
  #     hydro 3 s 3.2
  
  -----------------------------------------------------------------------
  Completed first pass over input file control.in .
  -----------------------------------------------------------------------
  
  
  -----------------------------------------------------------------------
  Parsing geometry.in (first pass over file, find array dimensions only).
  The contents of geometry.in will be repeated verbatim below
  unless switched off by setting 'verbatim_writeout .false.' .
  in the first line of geometry.in .
  -----------------------------------------------------------------------
  
  #=======================================================
  #FHI-aims file: ./geometry.in
  #Created using the Atomic Simulation Environment (ASE)
  #=======================================================
  atom 0.0000000000000000 0.0000000000000000 0.0000000000000000 C
  atom 1.3320000000000001 0.0000000000000000 0.0000000000000000 C
  atom -0.5743010000000000 0.0000000000000000 -0.9287850000000000 H
  atom -0.5743010000000000 0.0000000000000000 0.9287850000000000 H
  atom 1.9063010000000000 0.0000000000000000 0.9287850000000000 H
  atom 1.9063010000000000 0.0000000000000000 -0.9287850000000000 H
  atom -0.0000000000000000 5.0000000000000000 0.0000000000000000 C
  atom 1.3320000000000001 5.0000000000000000 -0.0000000000000000 C
  atom -0.5743010000000000 5.0000000000000000 0.9287850000000000 H
  atom -0.5743010000000000 5.0000000000000000 -0.9287850000000000 H
  atom 1.9063010000000000 5.0000000000000000 -0.9287850000000000 H
  atom 1.9063010000000000 5.0000000000000000 0.9287850000000000 H
  
  -----------------------------------------------------------------------
  Completed first pass over input file geometry.in .
  -----------------------------------------------------------------------
  

  Basic array size parameters:
  | Number of species                 :        2
  | Number of atoms                   :       12
  | Max. basis fn. angular momentum   :        2
  | Max. atomic/ionic basis occupied n:        2
  | Max. number of basis fn. types    :        2
  | Max. radial fns per species/type  :        3
  | Max. logarithmic grid size        :     1277
  | Max. radial integration grid size :       34
  | Max. angular integration grid size:      302
  | Max. angular grid division number :        8
  | Radial grid for Hartree potential :     1277
  | Number of spin channels           :        2

------------------------------------------------------------
          Reading file control.in.
------------------------------------------------------------
  No previous restart file was found for FO_DFT run:
  ... Generating new file from restart.f1 and restart.f2!
  Charge density mixing - mixing parameter:     0.5000
  Kohn-Sham eigenvalues and eigenfunctions calculated by LAPACK via ELSI.
  Convergence accuracy of self-consistent charge density:  0.1000E-03
  Non-relativistic treatment of kinetic energy.
  XC: Using BLYP functional.
  Charged system requested: Charge =   0.100000E+01.
  Using pulay charge density mixing.
  Convergence accuracy of total energy:  0.1000E-05
  Convergence accuracy of sum of eigenvalues:  0.1000E-01
  Pulay mixing - number of memorized iterations:   10
 Using packed matrix format           0
  Occupation type: Gaussian broadening, width =   0.100000E-01 eV.
  Initial spin moment per atom:   1.0000
  Spin treatment: Spin density functional theory - collinear spins.
 
  Reading configuration options for species C                   .
  | Found nuclear charge :   6.0000
  | Found atomic mass :    12.0107000000000      amu
  | Found l_max for Hartree potential  :   4
  | Found cutoff potl. onset [A], width [A], scale factor :    3.50000    1.50000    1.00000
  | Threshold for basis-dependent cutoff potential is   0.100000E-03
  | Found data for basic radial integration grid :    34 points, outermost radius =    5.000 A
  | Found multiplier for basic radial grid :   1
  | Found angular grid specification: user-specified.
  | Specified grid contains     5 separate shells.
  | Check grid settings after all constraints further below.
  | Found free-atom valence shell :  2 s   2.000
  | Found free-atom valence shell :  2 p   2.000
  | No ionic wave fns used. Skipping ion_occ.
  | No ionic wave fns used. Skipping ion_occ.
  | Found hydrogenic basis function :  2 p   1.700
  | Found hydrogenic basis function :  3 d   6.000
  | Found hydrogenic basis function :  2 s   4.900
  Species C                   : Missing cutoff potential type.
  Defaulting to exp(1/x)/(1-x)^2 type cutoff potential.
  Species C : No 'logarithmic' tag. Using default grid for free atom:
  | Default logarithmic grid data [bohr] : 0.1000E-03 0.1000E+03 0.1012E+01
  Species C : On-site basis accuracy parameter (for Gram-Schmidt orthonormalisation) not specified.
  Using default value basis_acc =  0.1000000E-03.
  Species C                   : Using default innermost maximum threshold i_radial=  2 for radial functions.
  Species C                   : Default cutoff onset for free atom density etc. : 0.35000000E+01 AA.
  Species C                   : Basic radial grid will be enhanced according to radial_multiplier =   1, to contain    34 grid points.
 
  Reading configuration options for species H                   .
  | Found nuclear charge :   1.0000
  | Found atomic mass :    1.00794000000000      amu
  | Found l_max for Hartree potential  :   4
  | Found cutoff potl. onset [A], width [A], scale factor :    3.50000    1.50000    1.00000
  | Threshold for basis-dependent cutoff potential is   0.100000E-03
  | Found data for basic radial integration grid :    24 points, outermost radius =    5.000 A
  | Found multiplier for basic radial grid :   1
  | Found angular grid specification: user-specified.
  | Specified grid contains     5 separate shells.
  | Check grid settings after all constraints further below.
  | Found free-atom valence shell :  1 s   1.000
  | No ionic wave fns used. Skipping ion_occ.
  | Found hydrogenic basis function :  2 s   2.100
  | Found hydrogenic basis function :  2 p   3.500
  Species H                   : Missing cutoff potential type.
  Defaulting to exp(1/x)/(1-x)^2 type cutoff potential.
  Species H : No 'logarithmic' tag. Using default grid for free atom:
  | Default logarithmic grid data [bohr] : 0.1000E-03 0.1000E+03 0.1012E+01
  Species H : On-site basis accuracy parameter (for Gram-Schmidt orthonormalisation) not specified.
  Using default value basis_acc =  0.1000000E-03.
  Species H                   : Using default innermost maximum threshold i_radial=  2 for radial functions.
  Species H                   : Default cutoff onset for free atom density etc. : 0.35000000E+01 AA.
  Species H                   : Basic radial grid will be enhanced according to radial_multiplier =   1, to contain    24 grid points.
 
  Finished reading input file 'control.in'. Consistency checks are next.
 
  MPI_IN_PLACE appears to work with this MPI implementation.
  | Keeping use_mpi_in_place .true. (see manual).
  Target number of points in a grid batch is not set. Defaulting to  100
  Method for grid partitioning is not set. Defaulting to parallel hash+maxmin partitioning.
  Batch size limit is not set. Defaulting to    200
  By default, will store active basis functions for each batch.
  If in need of memory, prune_basis_once .false. can be used to disable this option.
  communication_type for Hartree potential was not specified.
  Defaulting to calc_hartree .
  Pulay mixer: Number of initial linear mixing iterations not set.
  Defaulting to    0 iterations.
  Work space size for distributed Hartree potential not set.
  Defaulting to   0.200000E+03 MB.
  Mixing parameter for spin density mixing has not been set.
  Using charge_mix_param as default:     0.5000.
  Algorithm-dependent basis array size parameters:
  | n_max_pulay                         :       10
  Maximum number of self-consistency iterations not provided.
  Presetting  1000 iterations.
  Presetting      1001 iterations before the initial mixing cycle
  is restarted anyway using the sc_init_iter criterion / keyword.
  Presetting a factor      1.000 between actual scf density residual
  and density convergence criterion sc_accuracy_rho below which sc_init_iter
  takes no effect.
  Calculation of forces was not defined in control.in. No forces will be calculated.
  Geometry relaxation not requested: no relaxation will be performed.
  No accuracy limit for integral partition fn. given. Defaulting to  0.1000E-14.
  No threshold value for u(r) in integrations given. Defaulting to  0.1000E-05.
  No accuracy for occupation numbers given. Defaulting to  0.1000E-12.
  No threshold value for occupation numbers given. Defaulting to  0.0000E+00.
  No accuracy for fermi level given. Defaulting to  0.1000E-19.
  Maximum # of iterations to find E_F not set. Defaulting to  200.
  Will not use alltoall communication since running on < 1024 CPUs.
  Threshold for basis singularities not set.
  Default threshold for basis singularities:  0.1000E-04
  partition_type (choice of integration weights) for integrals was not specified.
  | Using a version of the partition function of Stratmann and coworkers ('stratmann_sparse').
  | At each grid point, the set of atoms used to build the partition table is smoothly restricted to
  | only those atoms whose free-atom density would be non-zero at that grid point.
  Partitioning for Hartree potential was not defined. Using partition_type for integrals.
  | Adjusted default value of keyword multip_moments_threshold to:       0.10000000E-11
  | This value may affect high angular momentum components of the Hartree potential in periodic systems.
  No q(lm)/r^(l+1) cutoff set for long-range Hartree potential.
  | Using default value of  0.100000E-09 .
  | Verify using the multipole_threshold keyword.
  Defaulting to new monopole extrapolation.
  Density update method: automatic selection selected.
  Charge integration errors on the 3D integration grid will be compensated
  by explicit normalization and distribution of residual charges.
  Use the "compensate_multipole_errors" flag to change this behaviour.
  Number of empty states calculated from fragments:   24
------------------------------------------------------------


------------------------------------------------------------
          Reading geometry description geometry.in.
------------------------------------------------------------
 * Warning: Initial charge and total charge of the system are inconsistent.
 * Selected charge in control.in:     1.0000* Sum of initial charges in geometry.in:     0.0000
  Input structure read successfully.
  The structure contains       12 atoms,  and a total of         31.000 electrons.

  Input geometry:
  | No unit cell requested.
  | Atomic structure:
  |       Atom                x [A]            y [A]            z [A]
  |    1: Species C             0.00000000        0.00000000        0.00000000
  |    2: Species C             1.33200000        0.00000000        0.00000000
  |    3: Species H            -0.57430100        0.00000000       -0.92878500
  |    4: Species H            -0.57430100        0.00000000        0.92878500
  |    5: Species H             1.90630100        0.00000000        0.92878500
  |    6: Species H             1.90630100        0.00000000       -0.92878500
  |    7: Species C             0.00000000        5.00000000        0.00000000
  |    8: Species C             1.33200000        5.00000000        0.00000000
  |    9: Species H            -0.57430100        5.00000000        0.92878500
  |   10: Species H            -0.57430100        5.00000000       -0.92878500
  |   11: Species H             1.90630100        5.00000000       -0.92878500
  |   12: Species H             1.90630100        5.00000000        0.92878500
  | The smallest distance between any two atoms is         1.09199964 AA.
  | The first atom of this pair is atom number                      2 .
  | The second atom of this pair is atom number                     5 .

  Initial moments and charges:
  |  Atom   Moment         Charge        Species
  |     1   0.100000E+01   0.000000E+00   C
  |     2   0.100000E+01   0.000000E+00   C
  |     3   0.100000E+01   0.000000E+00   H
  |     4   0.100000E+01   0.000000E+00   H
  |     5   0.100000E+01   0.000000E+00   H
  |     6   0.100000E+01   0.000000E+00   H
  |     7   0.100000E+01   0.000000E+00   C
  |     8   0.100000E+01   0.000000E+00   C
  |     9   0.100000E+01   0.000000E+00   H
  |    10   0.100000E+01   0.000000E+00   H
  |    11   0.100000E+01   0.000000E+00   H
  |    12   0.100000E+01   0.000000E+00   H

  Structure-dependent array size parameters: 
  | Number of distinct atom types in initial rho :        2
  | Maximum number of distinct radial functions  :        9
  | Maximum number of basis functions            :       96
  | Number of Kohn-Sham states (occupied + empty):       40
------------------------------------------------------------

------------------------------------------------------------
          Preparing all fixed parts of the calculation.
------------------------------------------------------------
  Determining machine precision:
    2.225073858507201E-308
  Setting up grids for atomic and cluster calculations.

  Creating wave function, potential, and density for free atoms.

  Species: C

  List of occupied orbitals and eigenvalues:
    n    l              occ      energy [Ha]    energy [eV]
    1    0           2.0000       -10.059074      -273.7213
    2    0           2.0000        -0.497403       -13.5350
    2    1           2.0000        -0.190064        -5.1719


  Species: H

  List of occupied orbitals and eigenvalues:
    n    l              occ      energy [Ha]    energy [eV]
    1    0           1.0000        -0.238986        -6.5031

  Spin-polarized or charged system:
  Charge density initialized according to selected moments and charges.

  Creating spin-polarized density from free atoms.

  Species: C
  Charge:   0.000000
  Moment:   1.000000

  List of occupied orbitals and eigenvalues:
    n    l      energy [Ha]    energy [eV]    occupation
  Spin-up
    1    0       -10.044099      -273.3138     1.00000000
    2    0        -0.512498       -13.9458     1.00000000
    2    1        -0.202304        -5.5050     1.50000000
  Spin-down
    1    0       -10.025503      -272.8078     1.00000000
    2    0        -0.456039       -12.4094     1.00000000
    2    1        -0.151306        -4.1172     0.50000000


  Species: H
  Charge:   0.000000
  Moment:   1.000000

  List of occupied orbitals and eigenvalues:
    n    l      energy [Ha]    energy [eV]    occupation
  Spin-up
    1    0        -0.271617        -7.3911     1.00000000
  Spin-down
    1    0         0.010749         0.2925     0.00000000

  Creating fixed part of basis set: Ionic, confined, hydrogenic.
 
  C                    hydrogenic:
 
  List of hydrogenic basis orbitals: 
    n    l      effective z      eigenvalue [eV]  inner max. [A]     outer max. [A]     outer radius [A]   
    2    1         1.700000        -9.7616           1.230570           1.230570           4.607917
    3    2         6.000000       -54.4224           0.792453           0.792453           3.883070
    2    0         4.900000       -81.6679           0.082559           0.562749           3.078220
 
 
  H                    hydrogenic:
 
  List of hydrogenic basis orbitals: 
    n    l      effective z      eigenvalue [eV]  inner max. [A]     outer max. [A]     outer radius [A]   
    2    0         2.100000       -14.9728           0.193243           1.317208           4.583499
    2    1         3.500000       -41.6669           0.602369           0.602369           3.723403
 

  Adding cutoff potential to free-atom effective potential.
  Creating atomic-like basis functions for current effective potential.

  Species C                   :

  List of atomic basis orbitals and eigenvalues:
    n    l      energy [Ha]    energy [eV]    outer radius [A]
    1    0       -10.059074      -273.7213       1.934409
    2    0        -0.497403       -13.5350       4.496620
    2    1        -0.190064        -5.1719       4.551928


  Species H                   :

  List of atomic basis orbitals and eigenvalues:
    n    l      energy [Ha]    energy [eV]    outer radius [A]
    1    0        -0.238986        -6.5031       4.527807

  Assembling full basis from fixed parts.
  | Species C :   atomic orbital   1 s accepted.
  | Species C :    hydro orbital   2 s accepted.
  | Species C :   atomic orbital   2 s accepted.
  | Species C :   atomic orbital   2 p accepted.
  | Species C :    hydro orbital   2 p accepted.
  | Species C :    hydro orbital   3 d accepted.
  | Species H :   atomic orbital   1 s accepted.
  | Species H :    hydro orbital   2 s accepted.
  | Species H :    hydro orbital   2 p accepted.
 
  Basis size parameters after reduction:
  | Total number of radial functions:        9
  | Total number of basis functions :       96
 
  Per-task memory consumption for arrays in subroutine allocate_ext:
  |           2.209696MB.
  Testing on-site integration grid accuracy.
  |  Species  Function  <phi|h_atom|phi> (log., in eV)  <phi|h_atom|phi> (rad., in eV)
           1        1               -273.7213210004               -273.7212876255
           1        2                -10.6053284287                -10.6054495351
           1        3                 17.0293579067                 17.0255083670
           1        4                 -5.1737559347                 -5.1753546213
           1        5                  8.7489378160                  8.7261914901
           1        6                 27.7012746399                 27.7012884208
           2        7                 -6.5043476601                 -6.5031260092
           2        8                 13.5140490794                 13.5199100086
           2        9                 25.3329411271                 25.3330836091

  Preparing densities etc. for the partition functions (integrals / Hartree potential).

  Preparations completed.
  max(cpu_time)          :      0.160 s.
  Wall clock time (cpu1) :      0.160 s.
------------------------------------------------------------

------------------------------------------------------------
          Begin self-consistency loop: Initialization.

          Date     :  20190817, Time     :  153604.504
------------------------------------------------------------

  Initializing index lists of integration centers etc. from given atomic structure:
  | Number of centers in hartree potential         :        12
  | Number of centers in hartree multipole         :        12
  | Number of centers in electron density summation:        12
  | Number of centers in basis integrals           :        12
  | Number of centers in integrals                 :        12
  | Number of centers in hamiltonian               :        12
  Partitioning the integration grid into batches with parallel hashing+maxmin method.
  | Number of batches:      566
  | Maximal batch size:     125
  | Minimal batch size:      55
  | Average batch size:     107.675
  | Standard deviation of batch sizes:      23.569

  Integration load balanced across     8 MPI tasks.
  Work distribution over tasks is as follows:
  Task     0 has       7580 integration points.
  Task     1 has       7615 integration points.
  Task     2 has       7677 integration points.
  Task     3 has       7627 integration points.
  Task     4 has       7566 integration points.
  Task     5 has       7683 integration points.
  Task     6 has       7616 integration points.
  Task     7 has       7580 integration points.
  Initializing partition tables, free-atom densities, potentials, etc. across the integration grid (initialize_grid_storage).
  | initialize_grid_storage: Actual outermost partition radius vs. multipole_radius_free
  | (-- VB: in principle, multipole_radius_free should be larger, hence this output)
  | Species        1: Confinement radius =              4.999999999999999 AA, multipole_radius_free =              5.019602836301480 AA.
  | Species        1: outer_partition_radius set to              5.019602836301480 AA .
  | Species        2: Confinement radius =              4.999999999999999 AA, multipole_radius_free =              5.054417573612229 AA.
  | Species        2: outer_partition_radius set to              5.054417573612229 AA .
  | The sparse table of interatomic distances needs          1.64 kbyte instead of         1.15 kbyte of memory.
  | Using the partition_type stratmann_smoother will reduce your memory usage.
  | Net number of integration points:    60944
  | of which are non-zero points    :    53720
  Renormalizing the initial density to the exact electron count on the 3D integration grid.
  | Initial density: Formal number of electrons (from input files) :      32.0000000000
  | Integrated number of electrons on 3D grid     :      31.9997104805
  | Charge integration error                      :      -0.0002895195
  | Normalization factor for density and gradient :       1.0000090476
  Renormalizing the free-atom superposition density to the exact electron count on the 3D integration grid.
  | Formal number of electrons (from input files) :      31.0000000000
  | Integrated number of electrons on 3D grid     :      31.9996715881
  | Charge integration error                      :      -0.0003284119
  | Normalization factor for density and gradient :       1.0000102630
  Obtaining max. number of non-zero basis functions in each batch (get_n_compute_maxes).
  | Maximal number of non-zero basis functions:       93 in task     0
  | Maximal number of non-zero basis functions:       94 in task     1
  | Maximal number of non-zero basis functions:       90 in task     2
  | Maximal number of non-zero basis functions:       94 in task     3
  | Maximal number of non-zero basis functions:       94 in task     4
  | Maximal number of non-zero basis functions:       94 in task     5
  | Maximal number of non-zero basis functions:       94 in task     6
  | Maximal number of non-zero basis functions:       94 in task     7
  Selecting the method for density update.
  Loop over occupied states selected for charge density update.
  Allocating        0.059 MB for KS_eigenvector
  Integrating Hamiltonian matrix: batch-based integration.
  Time summed over all CPUs for integration: real work        0.270 s, elapsed        0.277 s
  Integrating overlap matrix.
  Time summed over all CPUs for integration: real work        0.087 s, elapsed        0.090 s

  Reading cluster restart information from file restart.combined
  Writing Kohn-Sham eigenvalues.

  Spin-up eigenvalues:

  State    Occupation    Eigenvalue [Ha]    Eigenvalue [eV]
      1       1.00000         -10.256027         -279.08070
      2       1.00000         -10.255323         -279.06153
      3       1.00000          -9.908130         -269.61393
      4       1.00000          -9.907434         -269.59499
      5       1.00000          -1.034345          -28.14596
      6       1.00000          -0.825460          -22.46192
      7       1.00000          -0.726633          -19.77268
      8       1.00000          -0.692891          -18.85452
      9       1.00000          -0.683701          -18.60445
     10       1.00000          -0.606838          -16.51289
     11       1.00000          -0.595345          -16.20016
     12       1.00000          -0.517478          -14.08130
     13       1.00000          -0.417046          -11.34839
     14       1.00000          -0.372791          -10.14417
     15       0.00000          -0.362958           -9.87659
     16       1.00000          -0.311114           -8.46583
     17       1.00000          -0.241124           -6.56132
     18       0.00000          -0.173411           -4.71874
     19       0.00000          -0.159713           -4.34600
     20       0.00000          -0.138901           -3.77968
     21       0.00000          -0.029281           -0.79676
     22       0.00000          -0.029269           -0.79646
     23       0.00000           0.017582            0.47842
     24       0.00000           0.032708            0.89003
     25       0.00000           0.038296            1.04209
     26       0.00000           0.070421            1.91624
     27       0.00000           0.080202            2.18240
     28       0.00000           0.095905            2.60971
     29       0.00000           0.102042            2.77670
     30       0.00000           0.165195            4.49517
     31       0.00000           0.193592            5.26790
     32       0.00000           0.211455            5.75399
     33       0.00000           0.218777            5.95322
     34       0.00000           0.280057            7.62074
     35       0.00000           0.298495            8.12246
     36       0.00000           0.310293            8.44349
     37       0.00000           0.346391            9.42577
     38       0.00000           0.453485           12.33995
     39       0.00000           0.494017           13.44289
     40       0.00000           0.509323           13.85937

  Spin-down eigenvalues:

  State    Occupation    Eigenvalue [Ha]    Eigenvalue [eV]
      1       1.00000         -10.247811         -278.85712
      2       1.00000         -10.247107         -278.83798
      3       1.00000          -9.908130         -269.61393
      4       1.00000          -9.907434         -269.59499
      5       1.00000          -1.006382          -27.38506
      6       1.00000          -0.811918          -22.09340
      7       1.00000          -0.720043          -19.59338
      8       1.00000          -0.684055          -18.61409
      9       1.00000          -0.683701          -18.60445
     10       1.00000          -0.603216          -16.41435
     11       0.00000          -0.534695          -14.54980
     12       1.00000          -0.517478          -14.08130
     13       1.00000          -0.417046          -11.34839
     14       1.00000          -0.372791          -10.14417
     15       1.00000          -0.311114           -8.46583
     16       0.00000          -0.310371           -8.44564
     17       1.00000          -0.241124           -6.56132
     18       0.00000          -0.168132           -4.57510
     19       0.00000          -0.156674           -4.26331
     20       0.00000          -0.129587           -3.52624
     21       0.00000          -0.029281           -0.79676
     22       0.00000          -0.025309           -0.68868
     23       0.00000           0.022828            0.62117
     24       0.00000           0.044641            1.21474
     25       0.00000           0.061774            1.68095
     26       0.00000           0.070421            1.91624
     27       0.00000           0.082749            2.25172
     28       0.00000           0.095905            2.60971
     29       0.00000           0.102042            2.77670
     30       0.00000           0.182885            4.97656
     31       0.00000           0.218777            5.95322
     32       0.00000           0.220808            6.00849
     33       0.00000           0.243212            6.61813
     34       0.00000           0.280057            7.62074
     35       0.00000           0.298495            8.12246
     36       0.00000           0.310293            8.44349
     37       0.00000           0.346391            9.42577
     38       0.00000           0.453485           12.33995
     39       0.00000           0.494017           13.44289
     40       0.00000           0.509323           13.85937

  Current spin moment of the entire structure :
  | N = N_up - N_down :    1.00
  | S                 :    0.50
  | J                 :    2.00

  Highest occupied state (VBM) at     -6.56131547 eV
  | Occupation number:      1.00000000
  | Spin channel:        1

  Lowest unoccupied state (CBM) at   -14.54980466 eV
  | Occupation number:      0.00000000
  | Spin channel:        2

  Overall HOMO-LUMO gap:     -7.98848920 eV.
  Calculating total energy contributions from superposition of free atom densities.

  Total energy components:
  | Sum of eigenvalues            :         -94.03102851 Ha       -2558.71447161 eV
  | XC energy correction          :         -24.13466225 Ha        -656.73757424 eV
  | XC potential correction       :          30.90002116 Ha         840.83235683 eV
  | Free-atom electrostatic energy:         -68.19433547 Ha       -1855.66228330 eV
  | Hartree energy correction     :           0.00000000 Ha           0.00000000 eV
  | Entropy correction            :           0.00000000 Ha           0.00000000 eV
  | ---------------------------
  | Total energy                  :        -155.46000507 Ha       -4230.28197232 eV
  | Total energy, T -> 0          :        -155.46000507 Ha       -4230.28197232 eV  <-- do not rely on this value for anything but (periodic) metals
  | Electronic free energy        :        -155.46000507 Ha       -4230.28197232 eV

  Derived energy quantities:
  | Kinetic energy                :         156.65802819 Ha        4262.88184022 eV
  | Electrostatic energy          :        -287.98337102 Ha       -7836.42623830 eV
  | Energy correction for multipole
  | error in Hartree potential    :           0.00000000 Ha           0.00000000 eV
  | Sum of eigenvalues per atom                           :        -213.22620597 eV
  | Total energy (T->0) per atom                          :        -352.52349769 eV  <-- do not rely on this value for anything but (periodic) metals
  | Electronic free energy per atom                       :        -352.52349769 eV
  Initialize hartree_potential_storage
  Max. number of atoms included in rho_multipole:           12

  End scf initialization - timings             :  max(cpu_time)    wall_clock(cpu1)
  | Time for scf. initialization               :        0.104 s           0.104 s
  | Boundary condition initialization          :        0.000 s           0.000 s
  | Integration                                :        0.047 s           0.048 s
  | Solution of K.-S. eqns.                    :        0.003 s           0.003 s
  | Grid partitioning                          :        0.015 s           0.016 s
  | Preloading free-atom quantities on grid    :        0.002 s           0.002 s
  | Free-atom superposition energy             :        0.010 s           0.010 s
  | Total energy evaluation                    :        0.000 s           0.000 s

  Partial memory accounting:
  | Current value for overall tracked memory usage:
  |   Minimum:        0.165 MB (on task 0)
  |   Maximum:        0.165 MB (on task 0)
  |   Average:        0.165 MB
  | Peak value for overall tracked memory usage:
  |   Minimum:        0.658 MB (on task 2 after allocating wave)
  |   Maximum:        0.683 MB (on task 1 after allocating wave)
  |   Average:        0.679 MB
  | Largest tracked array allocation so far:
  |   Minimum:        0.179 MB (H_times_psi on task 4)
  |   Maximum:        0.180 MB (H_times_psi on task 0)
  |   Average:        0.180 MB
  Note:  These values currently only include a subset of arrays which are explicitly tracked.
  The "true" memory usage will be greater.
------------------------------------------------------------

------------------------------------------------------------
          Initial SCF-cycle to compute last known
          density from restart information.

  Date     :  20190817, Time     :  153604.609
------------------------------------------------------------
  Evaluating new KS density.
  Integration grid: deviation in total charge (<rho> - N_e) =  -9.642866E-05
  | <rho_up-rho_dn> = N_up-N_dn =      1.0000; <|rho_up-rho_dn|> =      1.0683
  Renormalizing the density to the exact electron count on the 3D integration grid.
  | Formal number of electrons (from input files) :      31.0000000000
  | Integrated number of electrons on 3D grid     :      30.9999035713
  | Charge integration error                      :      -0.0000964287
  | Normalization factor for density and gradient :       1.0000031106

  Evaluating partitioned Hartree potential by multipole expansion.
  | Original multipole sum: apparent total charge =   0.100000E+01
  | Sum of charges compensated after spline to logarithmic grids =   0.415379E-03
  | Analytical far-field extrapolation by fixed multipoles:
  | Hartree multipole sum: apparent total charge =   0.100000E+01
  Summing up the Hartree potential.
  Time summed over all CPUs for potential: real work        0.230 s, elapsed        0.232 s
  | RMS charge density error from multipole expansion :   0.275398E-01

  Integrating Hamiltonian matrix: batch-based integration.
  Time summed over all CPUs for integration: real work        0.268 s, elapsed        0.276 s

  Final Fragment-Orbital DFT step, skipped the solving of the eigenvalue problem!
  All following post-processing steps are done with the initial density read from the fragment restart files.
  Please note: This can lead to unexpected behaviour in different quantities
  due to the mixed occupations. Especially cube files
  are known to be affected.

  Total energy components:
  | Sum of eigenvalues            :         -94.03102851 Ha       -2558.71447161 eV
  | XC energy correction          :         -24.22483871 Ha        -659.19140056 eV
  | XC potential correction       :          31.00128980 Ha         843.58801680 eV
  | Free-atom electrostatic energy:         -68.19433547 Ha       -1855.66228330 eV
  | Hartree energy correction     :           0.25544328 Ha           6.95096526 eV
  | Entropy correction            :           0.00000000 Ha           0.00000000 eV
  | ---------------------------
  | Total energy                  :        -155.19346961 Ha       -4223.02917341 eV
  | Total energy, T -> 0          :        -155.19346961 Ha       -4223.02917341 eV  <-- do not rely on this value for anything but (periodic) metals
  | Electronic free energy        :        -155.19346961 Ha       -4223.02917341 eV

  Derived energy quantities:
  | Kinetic energy                :         158.01785087 Ha        4299.88449800 eV
  | Electrostatic energy          :        -288.98648177 Ha       -7863.72227086 eV
  | Energy correction for multipole
  | error in Hartree potential    :           0.04150861 Ha           1.12950683 eV
  | Sum of eigenvalues per atom                           :        -213.22620597 eV
  | Total energy (T->0) per atom                          :        -351.91909778 eV  <-- do not rely on this value for anything but (periodic) metals
  | Electronic free energy per atom                       :        -351.91909778 eV

  Self-consistency convergence accuracy:
  | Change of charge/spin density :  0.3869E+00  0.7194E+00
  | Change of sum of eigenvalues  :  0.0000E+00 eV
  | Change of total energy        :  0.7253E+01 eV

  Writing Kohn-Sham eigenvalues.

  Spin-up eigenvalues:

  State    Occupation    Eigenvalue [Ha]    Eigenvalue [eV]
      1       1.00000         -10.256027         -279.08070
      2       1.00000         -10.255323         -279.06153
      3       1.00000          -9.908130         -269.61393
      4       1.00000          -9.907434         -269.59499
      5       1.00000          -1.034345          -28.14596
      6       1.00000          -0.825460          -22.46192
      7       1.00000          -0.726633          -19.77268
      8       1.00000          -0.692891          -18.85452
      9       1.00000          -0.683701          -18.60445
     10       1.00000          -0.606838          -16.51289
     11       1.00000          -0.595345          -16.20016
     12       1.00000          -0.517478          -14.08130
     13       1.00000          -0.417046          -11.34839
     14       1.00000          -0.372791          -10.14417
     15       0.00000          -0.362958           -9.87659
     16       1.00000          -0.311114           -8.46583
     17       1.00000          -0.241124           -6.56132
     18       0.00000          -0.173411           -4.71874
     19       0.00000          -0.159713           -4.34600
     20       0.00000          -0.138901           -3.77968
     21       0.00000          -0.029281           -0.79676
     22       0.00000          -0.029269           -0.79646
     23       0.00000           0.017582            0.47842
     24       0.00000           0.032708            0.89003
     25       0.00000           0.038296            1.04209
     26       0.00000           0.070421            1.91624
     27       0.00000           0.080202            2.18240
     28       0.00000           0.095905            2.60971
     29       0.00000           0.102042            2.77670
     30       0.00000           0.165195            4.49517
     31       0.00000           0.193592            5.26790
     32       0.00000           0.211455            5.75399
     33       0.00000           0.218777            5.95322
     34       0.00000           0.280057            7.62074
     35       0.00000           0.298495            8.12246
     36       0.00000           0.310293            8.44349
     37       0.00000           0.346391            9.42577
     38       0.00000           0.453485           12.33995
     39       0.00000           0.494017           13.44289
     40       0.00000           0.509323           13.85937

  Spin-down eigenvalues:

  State    Occupation    Eigenvalue [Ha]    Eigenvalue [eV]
      1       1.00000         -10.247811         -278.85712
      2       1.00000         -10.247107         -278.83798
      3       1.00000          -9.908130         -269.61393
      4       1.00000          -9.907434         -269.59499
      5       1.00000          -1.006382          -27.38506
      6       1.00000          -0.811918          -22.09340
      7       1.00000          -0.720043          -19.59338
      8       1.00000          -0.684055          -18.61409
      9       1.00000          -0.683701          -18.60445
     10       1.00000          -0.603216          -16.41435
     11       0.00000          -0.534695          -14.54980
     12       1.00000          -0.517478          -14.08130
     13       1.00000          -0.417046          -11.34839
     14       1.00000          -0.372791          -10.14417
     15       1.00000          -0.311114           -8.46583
     16       0.00000          -0.310371           -8.44564
     17       1.00000          -0.241124           -6.56132
     18       0.00000          -0.168132           -4.57510
     19       0.00000          -0.156674           -4.26331
     20       0.00000          -0.129587           -3.52624
     21       0.00000          -0.029281           -0.79676
     22       0.00000          -0.025309           -0.68868
     23       0.00000           0.022828            0.62117
     24       0.00000           0.044641            1.21474
     25       0.00000           0.061774            1.68095
     26       0.00000           0.070421            1.91624
     27       0.00000           0.082749            2.25172
     28       0.00000           0.095905            2.60971
     29       0.00000           0.102042            2.77670
     30       0.00000           0.182885            4.97656
     31       0.00000           0.218777            5.95322
     32       0.00000           0.220808            6.00849
     33       0.00000           0.243212            6.61813
     34       0.00000           0.280057            7.62074
     35       0.00000           0.298495            8.12246
     36       0.00000           0.310293            8.44349
     37       0.00000           0.346391            9.42577
     38       0.00000           0.453485           12.33995
     39       0.00000           0.494017           13.44289
     40       0.00000           0.509323           13.85937

  Current spin moment of the entire structure :
  | N = N_up - N_down :    1.00
  | S                 :    0.50
  | J                 :    2.00

  Highest occupied state (VBM) at     -6.56131547 eV
  | Occupation number:      1.00000000
  | Spin channel:        1

  Lowest unoccupied state (CBM) at   -14.54980466 eV
  | Occupation number:      0.00000000
  | Spin channel:        2

  Overall HOMO-LUMO gap:     -7.98848920 eV.

  Self-consistency cycle converged.

  End self-consistency iteration #     0       :  max(cpu_time)    wall_clock(cpu1)
  | Time for this iteration                    :        0.095 s           0.094 s
  | Charge density update                      :        0.027 s           0.027 s
  | Density mixing                             :        0.001 s           0.000 s
  | Hartree multipole update                   :        0.002 s           0.002 s
  | Hartree multipole summation                :        0.029 s           0.030 s
  | Integration                                :        0.035 s           0.034 s
  | Solution of K.-S. eqns.                    :        0.003 s           0.003 s
  | Total energy evaluation                    :        0.000 s           0.000 s

  Partial memory accounting:
  | Current value for overall tracked memory usage:
  |   Minimum:        0.165 MB (on task 0)
  |   Maximum:        0.165 MB (on task 0)
  |   Average:        0.165 MB
  | Peak value for overall tracked memory usage:
  |   Minimum:        0.658 MB (on task 2 after allocating wave)
  |   Maximum:        0.683 MB (on task 1 after allocating wave)
  |   Average:        0.679 MB
  | Largest tracked array allocation so far:
  |   Minimum:        0.257 MB (gradient_basis_wave on task 2)
  |   Maximum:        0.269 MB (gradient_basis_wave on task 1)
  |   Average:        0.267 MB
  Note:  These values currently only include a subset of arrays which are explicitly tracked.
  The "true" memory usage will be greater.
------------------------------------------------------------

  Energy and forces in a compact form:
  | Total energy uncorrected      :         -0.422302917341341E+04 eV
  | Total energy corrected        :         -0.422302917341341E+04 eV  <-- do not rely on this value for anything but (periodic) metals
  | Electronic free energy        :         -0.422302917341341E+04 eV

  ------------------------------------ 
  Start decomposition of the XC Energy 
  ------------------------------------ 
  X and C from original XC functional choice 
  Hartree-Fock Energy :          0.000000000 Ha              0.000000000 eV
  X Energy            :        -23.263852854 Ha           -633.041644972 eV
  C Energy            :         -0.960985855 Ha            -26.149755588 eV
  Total XC Energy     :        -24.224838709 Ha           -659.191400560 eV
  ------------------------------------ 
  LDA X and C from self-consistent density 
  X Energy LDA        :        -20.834089235 Ha           -566.924412872 eV
  C Energy LDA        :         -1.914303704 Ha            -52.090854135 eV
  ------------------------------------ 
  End decomposition of the XC Energy 
  ------------------------------------ 

------------------------------------------------------------

  --------------------------------------------------------
  Calculation of electronic coupling values with FO-DFT
  --------------------------------------------------------
  Collecting information for output...
  H_ab for hole-transfer
  States evaluated for Fragment 1:  8  to    8
  States evaluated for Fragment 2:  8  to    8
  Please remember, these states are numbered according to the fragments,
  NOT the combined system!

  st1 -> st2:     h_ab
  -----------  ----------   ---
  008 -> 008:      -44.34   meV
  .         :      -1.630   mH

  | Total time to calculate H_ab               :        0.014 s           0.113 s
  -------------------------------------------------------------------------------
  | Time for Loewdin orthogonalisation         :        0.011 s           0.092 s
  | Time for H_ab submatrix evaluation         :        0.000 s           0.000 s
  -------------------------------------------------------------------------------
  Leaving FO-DFT routine.
  |------------------------------------------------------
  | Final ELSI Output
  |------------------------------------------------------
  |
  | Physical Properties
  |   Number of electrons       :        0.31000000E+02
  |   Number of states          :                    40
  |
  | Matrix Properties
  |   Matrix format             :           BLACS_DENSE
  |   Number of basis functions :                    96
  |
  | Computational Details
  |   Parallel mode             :           SINGLE_PROC
  |   Solver requested          :                LAPACK
  |   Number of ELSI calls      :                     0
  |
  |------------------------------------------------------
  | ELSI Project (c)  elsi-interchange.org
  |------------------------------------------------------

------------------------------------------------------------------------------
  Final output of selected total energy values:

  The following output summarizes some interesting total energy values
  at the end of a run (AFTER all relaxation, molecular dynamics, etc.).

  | Total energy of the DFT / Hartree-Fock s.c.f. calculation      :          -4223.029173413 eV
  | Final zero-broadening corrected energy (caution - metals only) :          -4223.029173413 eV
  | For reference only, the value of 1 Hartree used in FHI-aims is :             27.211384500 eV

  Before relying on these values, please be sure to understand exactly which
  total energy value is referred to by a given number. Different objects may
  all carry the same name 'total energy'. Definitions:

  Total energy of the DFT / Hartree-Fock s.c.f. calculation:
  | Note that this energy does not include ANY quantities calculated after the
  | s.c.f. cycle, in particular not ANY RPA, MP2, etc. many-body perturbation terms.

  Final zero-broadening corrected energy:
  | For metallic systems only, a broadening of the occupation numbers at the Fermi
  | level can be extrapolated back to zero broadening by an electron-gas inspired
  | formula. For all systems that are not real metals, this value can be
  | meaningless and should be avoided.

------------------------------------------------------------------------------
  Methods described in the following list of references were used in this FHI-aims run.
  If you publish the results, please make sure to cite these reference if they apply.
  FHI-aims is an academic code, and for our developers (often, Ph.D. students
  and postdocs), scientific credit in the community is essential.
  Thank you for helping us!

  For any use of FHI-aims, please cite:

    Volker Blum, Ralf Gehrke, Felix Hanke, Paula Havu, Ville Havu,
    Xinguo Ren, Karsten Reuter, and Matthias Scheffler
    'Ab initio molecular simulations with numeric atom-centered orbitals'
    Computer Physics Communications 180, 2175-2196 (2009)
    http://dx.doi.org/10.1016/j.cpc.2009.06.022


  For calculations of electronic coupling values using the
  Fragment molecular orbital scheme (FO-DFT), please cite:

    Christoph Schober, Karsten Reuter, Harald Oberhofer
    'Critical analysis of fragment-orbital DFT schemes
    for the calculation of electronic coupling values'
    Journal of Chemical Physics, 144, 054103 (2016).


  For the real-space grid partitioning and parallelization used in this calculation, please cite:

    Ville Havu, Volker Blum, Paula Havu, and Matthias Scheffler,
    'Efficient O(N) integration for all-electron electronic structure calculation'
    'using numerically tabulated basis functions'
    Journal of Computational Physics 228, 8367-8379 (2009).
    http://dx.doi.org/10.1016/j.jcp.2009.08.008

  Of course, there are many other important community references, e.g., those cited in the
  above references. Our list is limited to references that describe implementations in the
  FHI-aims code. The reason is purely practical (length of this list) - please credit others as well.

------------------------------------------------------------
          Leaving FHI-aims.
          Date     :  20190817, Time     :  153604.827

          Computational steps:
          | Number of self-consistency cycles          :            0
          | Number of SCF (re)initializations          :            1

          Detailed time accounting                     :  max(cpu_time)    wall_clock(cpu1)
          | Total time                                 :        0.452 s           0.568 s
          | Preparation time                           :        0.160 s           0.160 s
          | Boundary condition initalization           :        0.000 s           0.000 s
          | Grid partitioning                          :        0.015 s           0.016 s
          | Preloading free-atom quantities on grid    :        0.002 s           0.002 s
          | Free-atom superposition energy             :        0.010 s           0.010 s
          | Total time for integrations                :        0.082 s           0.082 s
          | Total time for solution of K.-S. equations :        0.003 s           0.003 s
          | Total time for density update              :        0.027 s           0.027 s
          | Total time for mixing                      :        0.001 s           0.000 s
          | Total time for Hartree multipole update    :        0.002 s           0.002 s
          | Total time for Hartree multipole sum       :        0.029 s           0.030 s
          | Total time for total energy evaluation     :        0.000 s           0.000 s
          | Total time for FO-DFT calculation          :        0.014 s           0.113 s

          Partial memory accounting:
          | Residual value for overall tracked memory usage across tasks:     0.000000 MB (should be 0.000000 MB)
          | Peak values for overall tracked memory usage:
          |   Minimum:        0.658 MB (on task 2 after allocating wave)
          |   Maximum:        0.683 MB (on task 1 after allocating wave)
          |   Average:        0.679 MB
          | Largest tracked array allocation:
          |   Minimum:        0.257 MB (gradient_basis_wave on task 2)
          |   Maximum:        0.269 MB (gradient_basis_wave on task 1)
          |   Average:        0.267 MB
          Note:  These values currently only include a subset of arrays which are explicitly tracked.
          The "true" memory usage will be greater.

          Have a nice day.
------------------------------------------------------------
