  MPI-parallelism will be employed.
------------------------------------------------------------
          Invoking FHI-aims ...

          When using FHI-aims, please cite the following reference:

          Volker Blum, Ralf Gehrke, Felix Hanke, Paula Havu,
          Ville Havu, Xinguo Ren, Karsten Reuter, and Matthias Scheffler,
          'Ab Initio Molecular Simulations with Numeric Atom-Centered Orbitals',
          Computer Physics Communications 180, 2175-2196 (2009)

          For any questions about FHI-aims, please visit the aimsclub website
          with its forums and wiki. Contributions to both the forums and the
          wiki are warmly encouraged - they are for you, and everyone is welcome there.

------------------------------------------------------------



  Date     :  20190817, Time     :  153120.707
  Time zero on CPU 1             :   0.262880000000000E-01  s.
  Internal wall clock time zero  :           335287880.707  s.

  FHI-aims created a unique identifier for this run for later identification
  aims_uuid : 9FF12985-F01B-44F7-AE9B-D0A79A42876E

  Build configuration of the current instance of FHI-aims
  -------------------------------------------------------
  FHI-aims version      : 190813
  Commit number         : 3da7baeb3
  CMake host system     : Linux-4.4.180-94.97-default
  CMake version         : 3.5.2
  Fortran compiler      : /mpcdf/soft/SLE_12_SP3/packages/x86_64/intel_parallel_studio/2018.4/compilers_and_libraries_2018.5.274/linux/mpi/bin64/mpiifort (Intel) version 18.0.5.20180823
  Fortran compiler flags: -O3 -ip -fp-model precise
  C compiler            : /mpcdf/soft/SLE_12_SP3/packages/skylake/intel/18.0.5/bin/icc (Intel) version 18.0.5.20180823
  C compiler flags      : -O3 -ip -fp-model precise
  Architecture          :
  Using MPI
  Using Scalapack
  Using C files
  Using SPGlib
  Using i-PI
  Linking against: /mpcdf/soft/SLE_12_SP3/packages/x86_64/anaconda/3.5.1.0/lib/libmkl_intel_lp64.so
                   /mpcdf/soft/SLE_12_SP3/packages/x86_64/anaconda/3.5.1.0/lib/libmkl_sequential.so
                   /mpcdf/soft/SLE_12_SP3/packages/x86_64/anaconda/3.5.1.0/lib/libmkl_core.so
                   /mpcdf/soft/SLE_12_SP3/packages/x86_64/anaconda/3.5.1.0/lib/libmkl_blacs_intelmpi_lp64.so
                   /mpcdf/soft/SLE_12_SP3/packages/x86_64/anaconda/3.5.1.0/lib/libmkl_scalapack_lp64.so

  Using        8 parallel tasks.
  Task        0 on host co1631 reporting.
  Task        1 on host co1631 reporting.
  Task        2 on host co1631 reporting.
  Task        3 on host co1631 reporting.
  Task        4 on host co1631 reporting.
  Task        5 on host co1631 reporting.
  Task        6 on host co1631 reporting.
  Task        7 on host co1631 reporting.

  Performing system and environment tests:
  | Environment variable OMP_NUM_THREADS correctly set to 1.
  | Maximum stacksize for task 0: unlimited
  | Maximum stacksize for task 1: unlimited
  | Maximum stacksize for task 2: unlimited
  | Maximum stacksize for task 3: unlimited
  | Maximum stacksize for task 4: unlimited
  | Maximum stacksize for task 5: unlimited
  | Maximum stacksize for task 6: unlimited
  | Maximum stacksize for task 7: unlimited
  | Current stacksize for task 0: unlimited
  | Current stacksize for task 1: unlimited
  | Current stacksize for task 2: unlimited
  | Current stacksize for task 3: unlimited
  | Current stacksize for task 4: unlimited
  | Current stacksize for task 5: unlimited
  | Current stacksize for task 6: unlimited
  | Current stacksize for task 7: unlimited
  | Checking for scalapack...
  | Testing pdtran()...
  | All pdtran() tests passed.

  Obtaining array dimensions for all initial allocations:
  
  -----------------------------------------------------------------------
  Parsing control.in (first pass over file, find array dimensions only).
  The contents of control.in will be repeated verbatim below
  unless switched off by setting 'verbatim_writeout .false.' .
  in the first line of control.in .
  -----------------------------------------------------------------------
  
  #########################################################################################
  #
  #  Volker Blum, FHI 2009 : Test run input file control.in for simple H2O
  #
  #########################################################################################
  #
  #  Physical model
  #
    xc                 pz-lda
    spin               none
    relativistic       none
    charge             0.
  #
  #  SCF convergence
  #
    occupation_type    gaussian 0.01
    mixer              pulay
      n_max_pulay        10
      charge_mix_param   0.5
    sc_accuracy_rho    1E-4
    sc_accuracy_eev    1E-2
    sc_accuracy_etot   1E-6
    sc_accuracy_forces 1E-4
    sc_iter_limit      100
  #postprocess_anyway  .true.
  
  
  k_grid             13 1 1
  
  #packed_matrix_format none
  
  output_level full
  
  DFPT phonon_reduce_memory
  
  DFPT_mixing   0.5
  DFPT_sc_accuracy_dm   1.0  # to make n_cpscf=3
  
  #dfpt_pulay_steps 1         # defaul is 8, here is equal to linear-mixing.
  
  KS_method   serial  # When using "parallel" with 4+ tasks, n_basis = 2 in this
                      # test is too small and leads to a false positive.
  
  ################################################################################
  #
  #  FHI-aims code project
  #  VB, Fritz-Haber Institut, 2009
  #
  #  Suggested "light" defaults for H atom (to be pasted into control.in file)
  #  Be sure to double-check any results obtained with these settings for post-processing,
  #  e.g., with the "tight" defaults and larger basis sets.
  #
  ################################################################################
    species        H
  #     global species definitions
      nucleus             1
      mass                1.00794
  #
      l_hartree           4
  #
      cut_pot             3.5  1.5  1.0
      basis_dep_cutoff    1e-4
  #
      radial_base         24 5.0
      radial_multiplier   1
      angular_grids       specified
        division   0.2421   50
        division   0.3822  110
        division   0.4799  194
        division   0.5341  302
  #      division   0.5626  434
  #      division   0.5922  590
  #      division   0.6542  770
  #      division   0.6868 1202
  #      outer_grid  770
        outer_grid  302
  ################################################################################
  #
  #  Definition of "minimal" basis
  #
  ################################################################################
  #     valence basis states
      valence      1  s   1.
  #     ion occupancy
      ion_occ      1  s   0.5
  ################################################################################
  #
  #  Suggested additional basis functions. For production calculations,
  #  uncomment them one after another (the most important basis functions are
  #  listed first).
  #
  #  Basis constructed for dimers: 0.5 A, 0.7 A, 1.0 A, 1.5 A, 2.5 A
  #
  ################################################################################
  #  "First tier" - improvements: -1014.90 meV to -62.69 meV
  #     hydro 2 s 2.1
  #     hydro 2 p 3.5
  #  "Second tier" - improvements: -12.89 meV to -1.83 meV
  #     hydro 1 s 0.85
  #     hydro 2 p 3.7
  #     hydro 2 s 1.2
  #     hydro 3 d 7
  #  "Third tier" - improvements: -0.25 meV to -0.12 meV
  #     hydro 4 f 11.2
  #     hydro 3 p 4.8
  #     hydro 4 d 9
  #     hydro 3 s 3.2
  
  -----------------------------------------------------------------------
  Completed first pass over input file control.in .
  -----------------------------------------------------------------------
  
  
  -----------------------------------------------------------------------
  Parsing geometry.in (first pass over file, find array dimensions only).
  The contents of geometry.in will be repeated verbatim below
  unless switched off by setting 'verbatim_writeout .false.' .
  in the first line of geometry.in .
  -----------------------------------------------------------------------
  
  lattice_vector 1.7400000000000000 0 0.000000000000000  0.0000000000000000
  lattice_vector 0.0000000000000000 40.0000000000000000 0.000000000000000
  lattice_vector 0.0000000000000000 0.00000000000000000  40.0000000000000000
  atom    -0.3700000   10.0    10.00000000    H
  atom     0.370000    10.0    10.00000000    H
  
  -----------------------------------------------------------------------
  Completed first pass over input file geometry.in .
  -----------------------------------------------------------------------
  

  Basic array size parameters:
  | Number of species                 :        1
  | Number of atoms                   :        2
  | Number of lattice vectors         :        3
  | Max. basis fn. angular momentum   :        0
  | Max. atomic/ionic basis occupied n:        1
  | Max. number of basis fn. types    :        1
  | Max. radial fns per species/type  :        1
  | Max. logarithmic grid size        :     1131
  | Max. radial integration grid size :       24
  | Max. angular integration grid size:      302
  | Max. angular grid division number :        8
  | Radial grid for Hartree potential :     1131
  | Number of spin channels           :        1

------------------------------------------------------------
          Reading file control.in.
------------------------------------------------------------
  XC: Using Perdew-Zunger parametrisation of Ceperley-Alder LDA.
  Spin treatment: No spin polarisation.
  Non-relativistic treatment of kinetic energy.
  Charge =   0.000000E+00: Neutral system requested explicitly.
  Occupation type: Gaussian broadening, width =   0.100000E-01 eV.
  Using pulay charge density mixing.
  Pulay mixing - number of memorized iterations:   10
  Charge density mixing - mixing parameter:     0.5000
  Convergence accuracy of self-consistent charge density:  0.1000E-03
  Convergence accuracy of sum of eigenvalues:  0.1000E-01
  Convergence accuracy of total energy:  0.1000E-05
  Convergence accuracy of forces:  0.1000E-03
  Maximum number of s.-c. iterations  :   100
  Found k-point grid:        13         1         1
  Requested output level: full                
  DFPT phonon (reciprocal space method) calculation will begin  after the DFT/HF calculation.
  DFPT_mixing =  0.500000E+00
  DFPT_sc_accuracy_dm =  0.100000E+01
  Kohn-Sham eigenvalues and eigenfunctions calculated by LAPACK via ELSI.
 
  Reading configuration options for species H                   .
  | Found nuclear charge :   1.0000
  | Found atomic mass :    1.00794000000000      amu
  | Found l_max for Hartree potential  :   4
  | Found cutoff potl. onset [A], width [A], scale factor :    3.50000    1.50000    1.00000
  | Threshold for basis-dependent cutoff potential is   0.100000E-03
  | Found data for basic radial integration grid :    24 points, outermost radius =    5.000 A
  | Found multiplier for basic radial grid :   1
  | Found angular grid specification: user-specified.
  | Specified grid contains     5 separate shells.
  | Check grid settings after all constraints further below.
  | Found free-atom valence shell :  1 s   1.000
  | No ionic wave fns used. Skipping ion_occ.
  Species H                   : Missing cutoff potential type.
  Defaulting to exp(1/x)/(1-x)^2 type cutoff potential.
  Species H : No 'logarithmic' tag. Using default grid for free atom:
  | Default logarithmic grid data [bohr] : 0.1000E-03 0.1000E+03 0.1012E+01
  Species H : On-site basis accuracy parameter (for Gram-Schmidt orthonormalisation) not specified.
  Using default value basis_acc =  0.1000000E-03.
  Species H                   : Using default innermost maximum threshold i_radial=  2 for radial functions.
  Species H                   : Default cutoff onset for free atom density etc. : 0.35000000E+01 AA.
  Species H                   : Basic radial grid will be enhanced according to radial_multiplier =   1, to contain    24 grid points.
 
  Finished reading input file 'control.in'. Consistency checks are next.
 
  MPI_IN_PLACE appears to work with this MPI implementation.
  | Keeping use_mpi_in_place .true. (see manual).
  Target number of points in a grid batch is not set. Defaulting to  100
  Method for grid partitioning is not set. Defaulting to parallel hash+maxmin partitioning.
  Batch size limit is not set. Defaulting to    200
  By default, will store active basis functions for each batch.
  If in need of memory, prune_basis_once .false. can be used to disable this option.
  communication_type for Hartree potential was not specified.
  Defaulting to calc_hartree .
  Pulay mixer: Number of initial linear mixing iterations not set.
  Defaulting to    0 iterations.
  Work space size for distributed Hartree potential not set.
  Defaulting to   0.200000E+03 MB.
  Algorithm-dependent basis array size parameters:
  | n_max_pulay                         :       10
  Presetting      1001 iterations before the initial mixing cycle
  is restarted anyway using the sc_init_iter criterion / keyword.
  Presetting a factor      1.000 between actual scf density residual
  and density convergence criterion sc_accuracy_rho below which sc_init_iter
  takes no effect.
  Geometry relaxation not requested: no relaxation will be performed.
  Handling of forces: Unphysical translation and rotation will be removed from forces.
  No accuracy limit for integral partition fn. given. Defaulting to  0.1000E-14.
  No threshold value for u(r) in integrations given. Defaulting to  0.1000E-05.
  No accuracy for occupation numbers given. Defaulting to  0.1000E-12.
  No threshold value for occupation numbers given. Defaulting to  0.0000E+00.
  No accuracy for fermi level given. Defaulting to  0.1000E-19.
  Maximum # of iterations to find E_F not set. Defaulting to  200.
  Will not use alltoall communication since running on < 1024 CPUs.
  Threshold for basis singularities not set.
  Default threshold for basis singularities:  0.1000E-04
  partition_type (choice of integration weights) for integrals was not specified.
  | Using a version of the partition function of Stratmann and coworkers ('stratmann_sparse').
  | At each grid point, the set of atoms used to build the partition table is smoothly restricted to
  | only those atoms whose free-atom density would be non-zero at that grid point.
  Partitioning for Hartree potential was not defined. Using partition_type for integrals.
  | Adjusted default value of keyword multip_moments_threshold to:       0.10000000E-11
  | This value may affect high angular momentum components of the Hartree potential in periodic systems.
  Angular momentum expansion for Kerker preconditioner not set explicitly.
  | Using default value of   0
  No explicit requirement for turning off preconditioner.
  | By default, it will be turned off when the charge convergence reaches
  | sc_accuracy_rho  =   0.100000E-03
  | sc_accuracy_eev  =   0.100000E-01
  | sc_accuracy_etot =   0.100000E-05
  No special mixing parameter while Kerker preconditioner is on.
  Using default: charge_mix_param =     0.5000.
  No q(lm)/r^(l+1) cutoff set for long-range Hartree potential.
  | Using default value of  0.100000E-09 .
  | Verify using the multipole_threshold keyword.
  Defaulting to new monopole extrapolation.
  Density update method: automatic selection selected.
  Using density matrix based charge density update.
  Using density matrix based charge density update.
  Using packed matrix style: index .
  Defaulting to use time-reversal symmetry for k-point grid.
  WARNING: Switching off the compensation of charge integration errors
  on the 3D integration grid, since you have requested a DFPT calculation.
  This is unfortunately necessary since "compensate_multipole_errors" is
  not yet implemented for DFPT.
  Use the "compensate_multipole_errors" flag to overwrite this behaviour.
------------------------------------------------------------


------------------------------------------------------------
          Reading geometry description geometry.in.
------------------------------------------------------------
  Input structure read successfully.
  The structure contains        2 atoms,  and a total of          2.000 electrons.

  Input geometry:
  | Unit cell:
  |        1.74000000        0.00000000        0.00000000
  |        0.00000000       40.00000000        0.00000000
  |        0.00000000        0.00000000       40.00000000
  | Atomic structure:
  |       Atom                x [A]            y [A]            z [A]
  |    1: Species H            -0.37000000       10.00000000       10.00000000
  |    2: Species H             0.37000000       10.00000000       10.00000000

  Lattice parameters for 3D lattice (in Angstroms) :     1.740000   40.000000   40.000000
  Angle(s) between unit vectors (in degrees)       :    90.000000   90.000000   90.000000

  | The smallest distance between any two atoms is         0.74000000 AA.
  | The first atom of this pair is atom number                      1 .
  | The second atom of this pair is atom number                     2 .
  | Wigner-Seitz cell of the first atom image           0     0     0 .
  | (The Wigner-Seitz cell of the second atom is 0 0 0  by definition.)

  Symmetry information by spglib:
  | Precision set to  0.1E-04
  | Number of Operations  : 16
  | Space group           : 123
  | International         : P4/mmm
  | Schoenflies           : D4h^1

  Quantities derived from the lattice vectors:
  | Reciprocal lattice vector 1:  3.611026  0.000000  0.000000
  | Reciprocal lattice vector 2:  0.000000  0.157080  0.000000
  | Reciprocal lattice vector 3:  0.000000  0.000000  0.157080
  | Unit cell volume                               :   0.278400E+04  A^3

  Range separation radius for Ewald summation (hartree_convergence_parameter):      5.00000000 bohr.

  Fractional coordinates:
                         L1                L2                L3
       atom_frac        -0.21264368        0.25000000        0.25000000  H
       atom_frac         0.21264368        0.25000000        0.25000000  H

  Number of empty states per atom not set in control.in .
  | Since you are using a method that relies on the unoccupied spectrum
  | (MP2,GW,RPA et al.), will use the full Hamiltonian size (see below)
  | as the max. possible number of states (occupied plus empty).

  Structure-dependent array size parameters: 
  | Maximum number of distinct radial functions  :        1
  | Maximum number of basis functions            :        2
  | Number of Kohn-Sham states (occupied + empty):        2
------------------------------------------------------------

------------------------------------------------------------
          Preparing all fixed parts of the calculation.
------------------------------------------------------------
  Determining machine precision:
    2.225073858507201E-308
  Setting up grids for atomic and cluster calculations.

  Creating wave function, potential, and density for free atoms.

  Species: H

  List of occupied orbitals and eigenvalues:
    n    l              occ      energy [Ha]    energy [eV]
    1    0           1.0000        -0.232599        -6.3294

  Creating fixed part of basis set: Ionic, confined, hydrogenic.

  Adding cutoff potential to free-atom effective potential.
  Creating atomic-like basis functions for current effective potential.

  Species H                   :

  List of atomic basis orbitals and eigenvalues:
    n    l      energy [Ha]    energy [eV]    outer radius [A]
    1    0        -0.232599        -6.3294       4.527807

  Assembling full basis from fixed parts.
  | Species H :   atomic orbital   1 s accepted.
 
  Basis size parameters after reduction:
  | Total number of radial functions:        1
  | Total number of basis functions :        2
 
  Per-task memory consumption for arrays in subroutine allocate_ext:
  |           0.217300MB.
  Testing on-site integration grid accuracy.
  |  Species  Function  <phi|h_atom|phi> (log., in eV)  <phi|h_atom|phi> (rad., in eV)
           1        1                 -6.3306359778                 -6.3293472169

  Preparing densities etc. for the partition functions (integrals / Hartree potential).

  Preparations completed.
  max(cpu_time)          :      0.041 s.
  Wall clock time (cpu1) :      0.041 s.
------------------------------------------------------------

------------------------------------------------------------
          Begin self-consistency loop: Initialization.

          Date     :  20190817, Time     :  153120.802
------------------------------------------------------------

  Initializing index lists of integration centers etc. from given atomic structure:
  Mapping all atomic coordinates to central unit cell.

  Initializing the k-points
          Using symmetry for reducing the k-points
  | k-points reduced from:       13 to        7
  | Number of k-points                             :         7
  | Consuming          1 KiB for k_phase_exx.
  The eigenvectors in the calculations are COMPLEX.
  | K-points in task   0:         0
  | K-points in task   1:         1
  | K-points in task   2:         1
  | K-points in task   3:         1
  | K-points in task   4:         1
  | K-points in task   5:         1
  | K-points in task   6:         1
  | K-points in task   7:         1
  | k-point: 1 at     0.000000    0.000000    0.000000  , weight:   0.07692308
  | k-point: 2 at     0.076923    0.000000    0.000000  , weight:   0.15384615
  | k-point: 3 at     0.153846    0.000000    0.000000  , weight:   0.15384615
  | k-point: 4 at     0.307692    0.000000    0.000000  , weight:   0.15384615
  | k-point: 5 at     0.384615    0.000000    0.000000  , weight:   0.15384615
  | k-point: 6 at     0.461538    0.000000    0.000000  , weight:   0.15384615
  | k-point: 7 at     0.769231    0.000000    0.000000  , weight:   0.15384615
  | Number of basis functions in the Hamiltonian integrals :        12
  | Number of basis functions in a single unit cell        :         2
  | Number of centers in hartree potential         :        40
  | Number of centers in hartree multipole         :        26
  | Number of centers in electron density summation:        22
  | Number of centers in basis integrals           :        24
  | Number of centers in integrals                 :        14
  | Number of centers in hamiltonian               :        22
  | Consuming          1 KiB for k_phase.
  | Number of super-cells (origin) [n_cells]                     :         207
  | Number of super-cells (after PM_index) [n_cells]             :          12
  | Number of super-cells in hamiltonian [n_cells_in_hamiltonian]:          12
  | Size of matrix packed + index [n_hamiltonian_matrix_size] :          33
  | Size of matrix packed + index (no_symmetry):          43
  | Estimated reciprocal-space cutoff momentum G_max:         1.84432723 bohr^-1 .
  | Reciprocal lattice points for long-range Hartree potential:    1548
  Partitioning the integration grid into batches with parallel hashing+maxmin method.
  | Number of batches:      136
  | Maximal batch size:      84
  | Minimal batch size:      57
  | Average batch size:      69.706
  | Standard deviation of batch sizes:       7.959

  Integration load balanced across     8 MPI tasks.
  Work distribution over tasks is as follows:
  Task     0 has       1206 integration points.
  Task     1 has       1212 integration points.
  Task     2 has       1149 integration points.
  Task     3 has       1174 integration points.
  Task     4 has       1180 integration points.
  Task     5 has       1186 integration points.
  Task     6 has       1198 integration points.
  Task     7 has       1175 integration points.
  Initializing partition tables, free-atom densities, potentials, etc. across the integration grid (initialize_grid_storage).
  | initialize_grid_storage: Actual outermost partition radius vs. multipole_radius_free
  | (-- VB: in principle, multipole_radius_free should be larger, hence this output)
  | Species        1: Confinement radius =              4.999999999999999 AA, multipole_radius_free =              5.054417573612229 AA.
  | Species        1: outer_partition_radius set to              5.054417573612229 AA .
  | The sparse table of interatomic distances needs          4.85 kbyte instead of         4.61 kbyte of memory.
  | Using the partition_type stratmann_smoother will reduce your memory usage.
  | Net number of integration points:     9480
  | of which are non-zero points    :     8156
  | Numerical average free-atom electrostatic potential    :     -0.02262254 eV
  Renormalizing the initial density to the exact electron count on the 3D integration grid.
  | Initial density: Formal number of electrons (from input files) :       2.0000000000
  | Integrated number of electrons on 3D grid     :       1.9999751364
  | Charge integration error                      :      -0.0000248636
  | Normalization factor for density and gradient :       1.0000124320
  Obtaining max. number of non-zero basis functions in each batch (get_n_compute_maxes).
  | Maximal number of non-zero basis functions:       12 in task     0
  | Maximal number of non-zero basis functions:       12 in task     1
  | Maximal number of non-zero basis functions:       12 in task     2
  | Maximal number of non-zero basis functions:       11 in task     3
  | Maximal number of non-zero basis functions:       11 in task     4
  | Maximal number of non-zero basis functions:       12 in task     5
  | Maximal number of non-zero basis functions:       12 in task     6
  | Maximal number of non-zero basis functions:       12 in task     7
  Allocating        0.000 MB for KS_eigenvector_complex
  Integrating Hamiltonian matrix: batch-based integration.
  Time summed over all CPUs for integration: real work        0.018 s, elapsed        0.019 s
          Integrate hamiltonian matrix                 :  max(cpu_time)    wall_clock(cpu1)
          | Total time                                 :        0.003 s           0.003 s
  Integrating overlap matrix.
  Time summed over all CPUs for integration: real work        0.010 s, elapsed        0.011 s
  Decreasing sparse matrix size:
   Tolerance:  9.999999824516700E-014
   Hamiltonian matrix
  | Array has       32 nonzero elements out of       33 elements
  | Sparsity factor is 0.030
   Overlap matrix
  | Array has       32 nonzero elements out of       33 elements
  | Sparsity factor is 0.030
  New size of hamiltonian matrix:          33

  Updating Kohn-Sham eigenvalues and eigenvectors using ELSI and the (modified) LAPACK eigensolver.

  Obtaining occupation numbers and chemical potential using ELSI.
  | Chemical potential (Fermi level):    -5.04839143 eV
  Writing Kohn-Sham eigenvalues.
  K-point:       1 at    0.000000    0.000000    0.000000 (in units of recip. lattice)

  State    Occupation    Eigenvalue [Ha]    Eigenvalue [eV]
      1       2.00000          -0.615624          -16.75199
      2       0.00000           1.104773           30.06240

  What follows are estimated values for band gap, HOMO, LUMO, etc.
  | They are estimated on a discrete k-point grid and not necessarily exact.
  | For converged numbers, create a DOS and/or band structure plot on a denser k-grid.

  Highest occupied state (VBM) at     -9.57762084 eV (relative to internal zero)
  | Occupation number:      2.00000000
  | K-point:       6 at    0.461538    0.000000    0.000000 (in units of recip. lattice)

  Lowest unoccupied state (CBM) at    -3.32301625 eV (relative to internal zero)
  | Occupation number:      0.00000000
  | K-point:       6 at    0.461538    0.000000    0.000000 (in units of recip. lattice)

  ESTIMATED overall HOMO-LUMO gap:      6.25460460 eV between HOMO at k-point 6 and LUMO at k-point 6
  | This appears to be a direct band gap.
  The gap value is above 0.2 eV. Unless you are using a very sparse k-point grid,
  this system is most likely an insulator or a semiconductor.
  Calculating total energy contributions from superposition of free atom densities.

  Total energy components:
  | Sum of eigenvalues            :          -1.03516851 Ha         -28.16836841 eV
  | XC energy correction          :          -0.59721952 Ha         -16.25116993 eV
  | XC potential correction       :           0.77906801 Ha          21.19951904 eV
  | Free-atom electrostatic energy:          -0.18197782 Ha          -4.95186848 eV
  | Hartree energy correction     :           0.00000000 Ha           0.00000000 eV
  | Entropy correction            :           0.00000000 Ha           0.00000000 eV
  | ---------------------------
  | Total energy                  :          -1.03529785 Ha         -28.17188778 eV
  | Total energy, T -> 0          :          -1.03529785 Ha         -28.17188778 eV  <-- do not rely on this value for anything but (periodic) metals
  | Electronic free energy        :          -1.03529785 Ha         -28.17188778 eV

  Derived energy quantities:
  | Kinetic energy                :           0.85376769 Ha          23.23220094 eV
  | Electrostatic energy          :          -1.29184602 Ha         -35.15291879 eV
  | Energy correction for multipole
  | error in Hartree potential    :           0.00000000 Ha           0.00000000 eV
  | Sum of eigenvalues per atom                           :         -14.08418421 eV
  | Total energy (T->0) per atom                          :         -14.08594389 eV  <-- do not rely on this value for anything but (periodic) metals
  | Electronic free energy per atom                       :         -14.08594389 eV
  Initialize hartree_potential_storage
  Max. number of atoms included in rho_multipole:            2

  End scf initialization - timings             :  max(cpu_time)    wall_clock(cpu1)
  | Time for scf. initialization               :        0.070 s           0.070 s
  | Boundary condition initialization          :        0.046 s           0.045 s
  | Integration                                :        0.004 s           0.004 s
  | Solution of K.-S. eqns.                    :        0.003 s           0.001 s
  | Grid partitioning                          :        0.006 s           0.006 s
  | Preloading free-atom quantities on grid    :        0.002 s           0.002 s
  | Free-atom superposition energy             :        0.001 s           0.001 s
  | Total energy evaluation                    :        0.000 s           0.001 s

  Partial memory accounting:
  | Current value for overall tracked memory usage:
  |   Minimum:        0.001 MB (on task 0)
  |   Maximum:        0.001 MB (on task 1)
  |   Average:        0.001 MB
  | Peak value for overall tracked memory usage:
  |   Minimum:        0.025 MB (on task 0 after allocating wave)
  |   Maximum:        0.089 MB (on task 2 after allocating grid_partition)
  |   Average:        0.051 MB
  | Largest tracked array allocation so far:
  |   Minimum:        0.008 MB (H_times_psi on task 0)
  |   Maximum:        0.059 MB (all_coords on task 2)
  |   Average:        0.029 MB
  Note:  These values currently only include a subset of arrays which are explicitly tracked.
  The "true" memory usage will be greater.
------------------------------------------------------------

------------------------------------------------------------
          Begin self-consistency iteration #    1

  Date     :  20190817, Time     :  153120.872
------------------------------------------------------------
  Evaluating new KS density using the density matrix
  Evaluating density matrix
  Time summed over all CPUs for getting density from density matrix: real work        0.012 s, elapsed        0.014 s
          Density and Forces (densmat)                 :  max(cpu_time)    wall_clock(cpu1)
          | Total time                                 :        0.002 s           0.002 s
          | Fetch Density Variables time               :        0.000 s           0.000 s
  Integration grid: deviation in total charge (<rho> - N_e) =   8.881784E-16
  Pulay mixing of updated and previous charge densities.

  Evaluating partitioned Hartree potential by multipole expansion.
  | Analytical far-field extrapolation by fixed multipoles:
  | Hartree multipole sum: apparent total charge =   0.224436E-03
  Summing up the Hartree potential.
  | Ewald reciprocal-space coefficients, myid =     0 : cpu      0.001 s, wall      0.001 s.
  | Ewald reciprocal-space coefficients, myid =     1 : cpu      0.001 s, wall      0.001 s.
  | Ewald reciprocal-space coefficients, myid =     2 : cpu      0.001 s, wall      0.001 s.
  | Ewald reciprocal-space coefficients, myid =     3 : cpu      0.001 s, wall      0.001 s.
  | Ewald reciprocal-space coefficients, myid =     4 : cpu      0.001 s, wall      0.001 s.
  | Ewald reciprocal-space coefficients, myid =     5 : cpu      0.001 s, wall      0.001 s.
  | Ewald reciprocal-space coefficients, myid =     6 : cpu      0.001 s, wall      0.001 s.
  | Ewald reciprocal-space coefficients, myid =     7 : cpu      0.001 s, wall      0.001 s.
  Time summed over all CPUs for potential: real work        0.147 s, elapsed        0.151 s
  | RMS charge density error from multipole expansion :   0.141262E-02
  | Average real-space part of the electrostatic potential :      0.00004249 eV

  Integrating Hamiltonian matrix: batch-based integration.
  Time summed over all CPUs for integration: real work        0.017 s, elapsed        0.020 s
          Integrate hamiltonian matrix                 :  max(cpu_time)    wall_clock(cpu1)
          | Total time                                 :        0.003 s           0.003 s

  Updating Kohn-Sham eigenvalues and eigenvectors using ELSI and the (modified) LAPACK eigensolver.

  Obtaining occupation numbers and chemical potential using ELSI.
  | Chemical potential (Fermi level):    -4.78549066 eV
  Writing Kohn-Sham eigenvalues.
  K-point:       1 at    0.000000    0.000000    0.000000 (in units of recip. lattice)

  State    Occupation    Eigenvalue [Ha]    Eigenvalue [eV]
      1       2.00000          -0.607158          -16.52162
      2       0.00000           1.118021           30.42290

  What follows are estimated values for band gap, HOMO, LUMO, etc.
  | They are estimated on a discrete k-point grid and not necessarily exact.
  | For converged numbers, create a DOS and/or band structure plot on a denser k-grid.

  Highest occupied state (VBM) at     -9.26216213 eV (relative to internal zero)
  | Occupation number:      2.00000000
  | K-point:       6 at    0.461538    0.000000    0.000000 (in units of recip. lattice)

  Lowest unoccupied state (CBM) at    -3.04975418 eV (relative to internal zero)
  | Occupation number:      0.00000000
  | K-point:       6 at    0.461538    0.000000    0.000000 (in units of recip. lattice)

  ESTIMATED overall HOMO-LUMO gap:      6.21240795 eV between HOMO at k-point 6 and LUMO at k-point 6
  | This appears to be a direct band gap.
  The gap value is above 0.2 eV. Unless you are using a very sparse k-point grid,
  this system is most likely an insulator or a semiconductor.

  Total energy components:
  | Sum of eigenvalues            :          -1.01592460 Ha         -27.64471502 eV
  | XC energy correction          :          -0.60449269 Ha         -16.44908311 eV
  | XC potential correction       :           0.78862343 Ha          21.45953536 eV
  | Free-atom electrostatic energy:          -0.18197782 Ha          -4.95186848 eV
  | Hartree energy correction     :          -0.02080831 Ha          -0.56622303 eV
  | Entropy correction            :           0.00000000 Ha           0.00000000 eV
  | ---------------------------
  | Total energy                  :          -1.03458000 Ha         -28.15235428 eV
  | Total energy, T -> 0          :          -1.03458000 Ha         -28.15235428 eV  <-- do not rely on this value for anything but (periodic) metals
  | Electronic free energy        :          -1.03458000 Ha         -28.15235428 eV

  Derived energy quantities:
  | Kinetic energy                :           0.88754807 Ha          24.15141170 eV
  | Electrostatic energy          :          -1.31763538 Ha         -35.85468287 eV
  | Energy correction for multipole
  | error in Hartree potential    :           0.00000130 Ha           0.00003543 eV
  | Sum of eigenvalues per atom                           :         -13.82235751 eV
  | Total energy (T->0) per atom                          :         -14.07617714 eV  <-- do not rely on this value for anything but (periodic) metals
  | Electronic free energy per atom                       :         -14.07617714 eV

  Self-consistency convergence accuracy:
  | Change of charge density      :  0.4357E-01
  | Change of sum of eigenvalues  :  0.5237E+00 eV
  | Change of total energy        :  0.1953E-01 eV

  End self-consistency iteration #     1       :  max(cpu_time)    wall_clock(cpu1)
  | Time for this iteration                    :        0.031 s           0.031 s
  | Charge density update                      :        0.002 s           0.002 s
  | Density mixing & preconditioning           :        0.002 s           0.002 s
  | Hartree multipole update                   :        0.001 s           0.001 s
  | Hartree multipole summation                :        0.023 s           0.022 s
  | Integration                                :        0.003 s           0.003 s
  | Solution of K.-S. eqns.                    :        0.000 s           0.000 s
  | Total energy evaluation                    :        0.000 s           0.000 s

  Partial memory accounting:
  | Current value for overall tracked memory usage:
  |   Minimum:        0.001 MB (on task 0)
  |   Maximum:        0.001 MB (on task 1)
  |   Average:        0.001 MB
  | Peak value for overall tracked memory usage:
  |   Minimum:        0.025 MB (on task 0 after allocating wave)
  |   Maximum:        0.089 MB (on task 2 after allocating grid_partition)
  |   Average:        0.051 MB
  | Largest tracked array allocation so far:
  |   Minimum:        0.008 MB (all_coords on task 0)
  |   Maximum:        0.059 MB (all_coords on task 2)
  |   Average:        0.029 MB
  Note:  These values currently only include a subset of arrays which are explicitly tracked.
  The "true" memory usage will be greater.
------------------------------------------------------------

------------------------------------------------------------
          Begin self-consistency iteration #    2

  Date     :  20190817, Time     :  153120.903
------------------------------------------------------------
  Evaluating new KS density using the density matrix
  Evaluating density matrix
  Time summed over all CPUs for getting density from density matrix: real work        0.011 s, elapsed        0.014 s
          Density and Forces (densmat)                 :  max(cpu_time)    wall_clock(cpu1)
          | Total time                                 :        0.002 s           0.002 s
          | Fetch Density Variables time               :        0.000 s           0.000 s
  Integration grid: deviation in total charge (<rho> - N_e) =  -4.440892E-16
  Pulay mixing of updated and previous charge densities.

  Evaluating partitioned Hartree potential by multipole expansion.
  | Analytical far-field extrapolation by fixed multipoles:
  | Hartree multipole sum: apparent total charge =   0.550017E-03
  Summing up the Hartree potential.
  | Ewald reciprocal-space coefficients, myid =     0 : cpu      0.001 s, wall      0.000 s.
  | Ewald reciprocal-space coefficients, myid =     1 : cpu      0.001 s, wall      0.001 s.
  | Ewald reciprocal-space coefficients, myid =     2 : cpu      0.001 s, wall      0.001 s.
  | Ewald reciprocal-space coefficients, myid =     3 : cpu      0.001 s, wall      0.001 s.
  | Ewald reciprocal-space coefficients, myid =     4 : cpu      0.001 s, wall      0.001 s.
  | Ewald reciprocal-space coefficients, myid =     5 : cpu      0.001 s, wall      0.001 s.
  | Ewald reciprocal-space coefficients, myid =     6 : cpu      0.001 s, wall      0.001 s.
  | Ewald reciprocal-space coefficients, myid =     7 : cpu      0.001 s, wall      0.001 s.
  Time summed over all CPUs for potential: real work        0.151 s, elapsed        0.158 s
  | RMS charge density error from multipole expansion :   0.288105E-02
  | Average real-space part of the electrostatic potential :      0.00006022 eV

  Integrating Hamiltonian matrix: batch-based integration.
  Time summed over all CPUs for integration: real work        0.015 s, elapsed        0.017 s
          Integrate hamiltonian matrix                 :  max(cpu_time)    wall_clock(cpu1)
          | Total time                                 :        0.002 s           0.003 s

  Updating Kohn-Sham eigenvalues and eigenvectors using ELSI and the (modified) LAPACK eigensolver.

  Obtaining occupation numbers and chemical potential using ELSI.
  | Chemical potential (Fermi level):    -4.42593165 eV
  Writing Kohn-Sham eigenvalues.
  K-point:       1 at    0.000000    0.000000    0.000000 (in units of recip. lattice)

  State    Occupation    Eigenvalue [Ha]    Eigenvalue [eV]
      1       2.00000          -0.595483          -16.20391
      2       0.00000           1.135848           30.90800

  What follows are estimated values for band gap, HOMO, LUMO, etc.
  | They are estimated on a discrete k-point grid and not necessarily exact.
  | For converged numbers, create a DOS and/or band structure plot on a denser k-grid.

  Highest occupied state (VBM) at     -8.83709058 eV (relative to internal zero)
  | Occupation number:      2.00000000
  | K-point:       6 at    0.461538    0.000000    0.000000 (in units of recip. lattice)

  Lowest unoccupied state (CBM) at    -2.66929239 eV (relative to internal zero)
  | Occupation number:      0.00000000
  | K-point:       6 at    0.461538    0.000000    0.000000 (in units of recip. lattice)

  ESTIMATED overall HOMO-LUMO gap:      6.16779819 eV between HOMO at k-point 6 and LUMO at k-point 6
  | This appears to be a direct band gap.
  The gap value is above 0.2 eV. Unless you are using a very sparse k-point grid,
  this system is most likely an insulator or a semiconductor.

  Checking to see if s.c.f. parameters should be adjusted.

  Total energy components:
  | Sum of eigenvalues            :          -0.98961219 Ha         -26.92871792 eV
  | XC energy correction          :          -0.61476284 Ha         -16.72854799 eV
  | XC potential correction       :           0.80211581 Ha          21.82668165 eV
  | Free-atom electrostatic energy:          -0.18197782 Ha          -4.95186848 eV
  | Hartree energy correction     :          -0.04996373 Ha          -1.35958231 eV
  | Entropy correction            :           0.00000000 Ha           0.00000000 eV
  | ---------------------------
  | Total energy                  :          -1.03420078 Ha         -28.14203505 eV
  | Total energy, T -> 0          :          -1.03420078 Ha         -28.14203505 eV  <-- do not rely on this value for anything but (periodic) metals
  | Electronic free energy        :          -1.03420078 Ha         -28.14203505 eV

  Derived energy quantities:
  | Kinetic energy                :           0.92906752 Ha          25.28121357 eV
  | Electrostatic energy          :          -1.34850546 Ha         -36.69470063 eV
  | Energy correction for multipole
  | error in Hartree potential    :          -0.00006831 Ha          -0.00185872 eV
  | Sum of eigenvalues per atom                           :         -13.46435896 eV
  | Total energy (T->0) per atom                          :         -14.07101752 eV  <-- do not rely on this value for anything but (periodic) metals
  | Electronic free energy per atom                       :         -14.07101752 eV

  Self-consistency convergence accuracy:
  | Change of charge density      :  0.2289E-01
  | Change of sum of eigenvalues  :  0.7160E+00 eV
  | Change of total energy        :  0.1032E-01 eV

  End self-consistency iteration #     2       :  max(cpu_time)    wall_clock(cpu1)
  | Time for this iteration                    :        0.030 s           0.030 s
  | Charge density update                      :        0.002 s           0.002 s
  | Density mixing & preconditioning           :        0.002 s           0.002 s
  | Hartree multipole update                   :        0.001 s           0.001 s
  | Hartree multipole summation                :        0.023 s           0.022 s
  | Integration                                :        0.002 s           0.003 s
  | Solution of K.-S. eqns.                    :        0.000 s           0.000 s
  | Total energy evaluation                    :        0.000 s           0.000 s

  Partial memory accounting:
  | Current value for overall tracked memory usage:
  |   Minimum:        0.002 MB (on task 0)
  |   Maximum:        0.002 MB (on task 1)
  |   Average:        0.002 MB
  | Peak value for overall tracked memory usage:
  |   Minimum:        0.026 MB (on task 0 after allocating wave)
  |   Maximum:        0.089 MB (on task 2 after allocating grid_partition)
  |   Average:        0.051 MB
  | Largest tracked array allocation so far:
  |   Minimum:        0.008 MB (all_coords on task 0)
  |   Maximum:        0.059 MB (all_coords on task 2)
  |   Average:        0.029 MB
  Note:  These values currently only include a subset of arrays which are explicitly tracked.
  The "true" memory usage will be greater.
------------------------------------------------------------

------------------------------------------------------------
          Begin self-consistency iteration #    3

  Date     :  20190817, Time     :  153120.934
------------------------------------------------------------
  Evaluating new KS density using the density matrix
  Evaluating density matrix
  Time summed over all CPUs for getting density from density matrix: real work        0.011 s, elapsed        0.013 s
          Density and Forces (densmat)                 :  max(cpu_time)    wall_clock(cpu1)
          | Total time                                 :        0.002 s           0.001 s
          | Fetch Density Variables time               :        0.000 s           0.000 s
  Integration grid: deviation in total charge (<rho> - N_e) =   0.000000E+00
  Pulay mixing of updated and previous charge densities.

  Evaluating partitioned Hartree potential by multipole expansion.
  | Analytical far-field extrapolation by fixed multipoles:
  | Hartree multipole sum: apparent total charge =   0.552302E-03
  Summing up the Hartree potential.
  | Ewald reciprocal-space coefficients, myid =     0 : cpu      0.001 s, wall      0.000 s.
  | Ewald reciprocal-space coefficients, myid =     1 : cpu      0.001 s, wall      0.000 s.
  | Ewald reciprocal-space coefficients, myid =     2 : cpu      0.001 s, wall      0.000 s.
  | Ewald reciprocal-space coefficients, myid =     3 : cpu      0.001 s, wall      0.000 s.
  | Ewald reciprocal-space coefficients, myid =     4 : cpu      0.001 s, wall      0.000 s.
  | Ewald reciprocal-space coefficients, myid =     5 : cpu      0.001 s, wall      0.000 s.
  | Ewald reciprocal-space coefficients, myid =     6 : cpu      0.001 s, wall      0.000 s.
  | Ewald reciprocal-space coefficients, myid =     7 : cpu      0.001 s, wall      0.000 s.
  Time summed over all CPUs for potential: real work        0.155 s, elapsed        0.176 s
  | RMS charge density error from multipole expansion :   0.286789E-02
  | Average real-space part of the electrostatic potential :      0.00003191 eV

  Integrating Hamiltonian matrix: batch-based integration.
  Time summed over all CPUs for integration: real work        0.016 s, elapsed        0.018 s
          Integrate hamiltonian matrix                 :  max(cpu_time)    wall_clock(cpu1)
          | Total time                                 :        0.002 s           0.002 s

  Updating Kohn-Sham eigenvalues and eigenvectors using ELSI and the (modified) LAPACK eigensolver.

  Obtaining occupation numbers and chemical potential using ELSI.
  | Chemical potential (Fermi level):    -4.29182220 eV
  Writing Kohn-Sham eigenvalues.
  K-point:       1 at    0.000000    0.000000    0.000000 (in units of recip. lattice)

  State    Occupation    Eigenvalue [Ha]    Eigenvalue [eV]
      1       2.00000          -0.591048          -16.08323
      2       0.00000           1.142258           31.08242

  What follows are estimated values for band gap, HOMO, LUMO, etc.
  | They are estimated on a discrete k-point grid and not necessarily exact.
  | For converged numbers, create a DOS and/or band structure plot on a denser k-grid.

  Highest occupied state (VBM) at     -8.69037895 eV (relative to internal zero)
  | Occupation number:      2.00000000
  | K-point:       6 at    0.461538    0.000000    0.000000 (in units of recip. lattice)

  Lowest unoccupied state (CBM) at    -2.52007044 eV (relative to internal zero)
  | Occupation number:      0.00000000
  | K-point:       6 at    0.461538    0.000000    0.000000 (in units of recip. lattice)

  ESTIMATED overall HOMO-LUMO gap:      6.17030851 eV between HOMO at k-point 6 and LUMO at k-point 6
  | This appears to be a direct band gap.
  The gap value is above 0.2 eV. Unless you are using a very sparse k-point grid,
  this system is most likely an insulator or a semiconductor.

  Total energy components:
  | Sum of eigenvalues            :          -0.97996156 Ha         -26.66611090 eV
  | XC energy correction          :          -0.61779495 Ha         -16.81105583 eV
  | XC potential correction       :           0.80609396 Ha          21.93493278 eV
  | Free-atom electrostatic energy:          -0.18197782 Ha          -4.95186848 eV
  | Hartree energy correction     :          -0.06053540 Ha          -1.64725195 eV
  | Entropy correction            :           0.00000000 Ha           0.00000000 eV
  | ---------------------------
  | Total energy                  :          -1.03417576 Ha         -28.14135437 eV
  | Total energy, T -> 0          :          -1.03417576 Ha         -28.14135437 eV  <-- do not rely on this value for anything but (periodic) metals
  | Electronic free energy        :          -1.03417576 Ha         -28.14135437 eV

  Derived energy quantities:
  | Kinetic energy                :           0.94027307 Ha          25.58613192 eV
  | Electrostatic energy          :          -1.35665388 Ha         -36.91643046 eV
  | Energy correction for multipole
  | error in Hartree potential    :          -0.00017070 Ha          -0.00464487 eV
  | Sum of eigenvalues per atom                           :         -13.33305545 eV
  | Total energy (T->0) per atom                          :         -14.07067718 eV  <-- do not rely on this value for anything but (periodic) metals
  | Electronic free energy per atom                       :         -14.07067718 eV

  Self-consistency convergence accuracy:
  | Change of charge density      :  0.3132E-02
  | Change of sum of eigenvalues  :  0.2626E+00 eV
  | Change of total energy        :  0.6807E-03 eV

  End self-consistency iteration #     3       :  max(cpu_time)    wall_clock(cpu1)
  | Time for this iteration                    :        0.032 s           0.032 s
  | Charge density update                      :        0.002 s           0.001 s
  | Density mixing & preconditioning           :        0.002 s           0.002 s
  | Hartree multipole update                   :        0.001 s           0.001 s
  | Hartree multipole summation                :        0.025 s           0.025 s
  | Integration                                :        0.002 s           0.002 s
  | Solution of K.-S. eqns.                    :        0.000 s           0.000 s
  | Total energy evaluation                    :        0.000 s           0.001 s

  Partial memory accounting:
  | Current value for overall tracked memory usage:
  |   Minimum:        0.002 MB (on task 0)
  |   Maximum:        0.002 MB (on task 1)
  |   Average:        0.002 MB
  | Peak value for overall tracked memory usage:
  |   Minimum:        0.026 MB (on task 0 after allocating wave)
  |   Maximum:        0.089 MB (on task 2 after allocating grid_partition)
  |   Average:        0.051 MB
  | Largest tracked array allocation so far:
  |   Minimum:        0.008 MB (all_coords on task 0)
  |   Maximum:        0.059 MB (all_coords on task 2)
  |   Average:        0.029 MB
  Note:  These values currently only include a subset of arrays which are explicitly tracked.
  The "true" memory usage will be greater.
------------------------------------------------------------

------------------------------------------------------------
          Begin self-consistency iteration #    4

  Date     :  20190817, Time     :  153120.966
------------------------------------------------------------
  Evaluating new KS density using the density matrix
  Evaluating density matrix
  Time summed over all CPUs for getting density from density matrix: real work        0.010 s, elapsed        0.013 s
          Density and Forces (densmat)                 :  max(cpu_time)    wall_clock(cpu1)
          | Total time                                 :        0.002 s           0.002 s
          | Fetch Density Variables time               :        0.000 s           0.000 s
  Integration grid: deviation in total charge (<rho> - N_e) =   8.881784E-16
  Pulay mixing of updated and previous charge densities.

  Evaluating partitioned Hartree potential by multipole expansion.
  | Analytical far-field extrapolation by fixed multipoles:
  | Hartree multipole sum: apparent total charge =   0.213418E-03
  Summing up the Hartree potential.
  | Ewald reciprocal-space coefficients, myid =     0 : cpu      0.001 s, wall      0.001 s.
  | Ewald reciprocal-space coefficients, myid =     1 : cpu      0.001 s, wall      0.001 s.
  | Ewald reciprocal-space coefficients, myid =     2 : cpu      0.001 s, wall      0.001 s.
  | Ewald reciprocal-space coefficients, myid =     3 : cpu      0.001 s, wall      0.001 s.
  | Ewald reciprocal-space coefficients, myid =     4 : cpu      0.001 s, wall      0.001 s.
  | Ewald reciprocal-space coefficients, myid =     5 : cpu      0.001 s, wall      0.001 s.
  | Ewald reciprocal-space coefficients, myid =     6 : cpu      0.001 s, wall      0.001 s.
  | Ewald reciprocal-space coefficients, myid =     7 : cpu      0.001 s, wall      0.001 s.
  Time summed over all CPUs for potential: real work        0.151 s, elapsed        0.158 s
  | RMS charge density error from multipole expansion :   0.288097E-02
  | Average real-space part of the electrostatic potential :      0.00006935 eV

  Integrating Hamiltonian matrix: batch-based integration.
  Time summed over all CPUs for integration: real work        0.016 s, elapsed        0.017 s
          Integrate hamiltonian matrix                 :  max(cpu_time)    wall_clock(cpu1)
          | Total time                                 :        0.002 s           0.002 s

  Updating Kohn-Sham eigenvalues and eigenvectors using ELSI and the (modified) LAPACK eigensolver.

  Obtaining occupation numbers and chemical potential using ELSI.
  | Chemical potential (Fermi level):    -4.27312873 eV
  Writing Kohn-Sham eigenvalues.
  K-point:       1 at    0.000000    0.000000    0.000000 (in units of recip. lattice)

  State    Occupation    Eigenvalue [Ha]    Eigenvalue [eV]
      1       2.00000          -0.590389          -16.06530
      2       0.00000           1.143029           31.10340

  What follows are estimated values for band gap, HOMO, LUMO, etc.
  | They are estimated on a discrete k-point grid and not necessarily exact.
  | For converged numbers, create a DOS and/or band structure plot on a denser k-grid.

  Highest occupied state (VBM) at     -8.67077007 eV (relative to internal zero)
  | Occupation number:      2.00000000
  | K-point:       6 at    0.461538    0.000000    0.000000 (in units of recip. lattice)

  Lowest unoccupied state (CBM) at    -2.50060045 eV (relative to internal zero)
  | Occupation number:      0.00000000
  | K-point:       6 at    0.461538    0.000000    0.000000 (in units of recip. lattice)

  ESTIMATED overall HOMO-LUMO gap:      6.17016961 eV between HOMO at k-point 6 and LUMO at k-point 6
  | This appears to be a direct band gap.
  The gap value is above 0.2 eV. Unless you are using a very sparse k-point grid,
  this system is most likely an insulator or a semiconductor.

  Total energy components:
  | Sum of eigenvalues            :          -0.97859448 Ha         -26.62891077 eV
  | XC energy correction          :          -0.61801783 Ha         -16.81712070 eV
  | XC potential correction       :           0.80638528 Ha          21.94285983 eV
  | Free-atom electrostatic energy:          -0.18197782 Ha          -4.95186848 eV
  | Hartree energy correction     :          -0.06197069 Ha          -1.68630840 eV
  | Entropy correction            :           0.00000000 Ha           0.00000000 eV
  | ---------------------------
  | Total energy                  :          -1.03417555 Ha         -28.14134851 eV
  | Total energy, T -> 0          :          -1.03417555 Ha         -28.14134851 eV  <-- do not rely on this value for anything but (periodic) metals
  | Electronic free energy        :          -1.03417555 Ha         -28.14134851 eV

  Derived energy quantities:
  | Kinetic energy                :           0.94060837 Ha          25.59525603 eV
  | Electrostatic energy          :          -1.35676609 Ha         -36.91948384 eV
  | Energy correction for multipole
  | error in Hartree potential    :          -0.00017939 Ha          -0.00488141 eV
  | Sum of eigenvalues per atom                           :         -13.31445538 eV
  | Total energy (T->0) per atom                          :         -14.07067425 eV  <-- do not rely on this value for anything but (periodic) metals
  | Electronic free energy per atom                       :         -14.07067425 eV

  Self-consistency convergence accuracy:
  | Change of charge density      :  0.1772E-03
  | Change of sum of eigenvalues  :  0.3720E-01 eV
  | Change of total energy        :  0.5863E-05 eV

  End self-consistency iteration #     4       :  max(cpu_time)    wall_clock(cpu1)
  | Time for this iteration                    :        0.030 s           0.029 s
  | Charge density update                      :        0.002 s           0.002 s
  | Density mixing & preconditioning           :        0.001 s           0.001 s
  | Hartree multipole update                   :        0.001 s           0.001 s
  | Hartree multipole summation                :        0.023 s           0.023 s
  | Integration                                :        0.002 s           0.002 s
  | Solution of K.-S. eqns.                    :        0.000 s           0.000 s
  | Total energy evaluation                    :        0.000 s           0.000 s

  Partial memory accounting:
  | Current value for overall tracked memory usage:
  |   Minimum:        0.002 MB (on task 0)
  |   Maximum:        0.002 MB (on task 1)
  |   Average:        0.002 MB
  | Peak value for overall tracked memory usage:
  |   Minimum:        0.026 MB (on task 0 after allocating wave)
  |   Maximum:        0.089 MB (on task 2 after allocating grid_partition)
  |   Average:        0.051 MB
  | Largest tracked array allocation so far:
  |   Minimum:        0.008 MB (all_coords on task 0)
  |   Maximum:        0.059 MB (all_coords on task 2)
  |   Average:        0.029 MB
  Note:  These values currently only include a subset of arrays which are explicitly tracked.
  The "true" memory usage will be greater.
------------------------------------------------------------

------------------------------------------------------------
          Begin self-consistency iteration #    5

  Date     :  20190817, Time     :  153120.996
------------------------------------------------------------
  Evaluating new KS density using the density matrix
  Evaluating density matrix
  Time summed over all CPUs for getting density from density matrix: real work        0.011 s, elapsed        0.014 s
          Density and Forces (densmat)                 :  max(cpu_time)    wall_clock(cpu1)
          | Total time                                 :        0.002 s           0.002 s
          | Fetch Density Variables time               :        0.000 s           0.000 s
  Integration grid: deviation in total charge (<rho> - N_e) =   4.440892E-16
  Pulay mixing of updated and previous charge densities.

  Evaluating partitioned Hartree potential by multipole expansion.
  | Analytical far-field extrapolation by fixed multipoles:
  | Hartree multipole sum: apparent total charge =  -0.298248E-04
  Summing up the Hartree potential.
  | Ewald reciprocal-space coefficients, myid =     0 : cpu      0.001 s, wall      0.000 s.
  | Ewald reciprocal-space coefficients, myid =     1 : cpu      0.001 s, wall      0.000 s.
  | Ewald reciprocal-space coefficients, myid =     2 : cpu      0.001 s, wall      0.000 s.
  | Ewald reciprocal-space coefficients, myid =     3 : cpu      0.001 s, wall      0.000 s.
  | Ewald reciprocal-space coefficients, myid =     4 : cpu      0.001 s, wall      0.000 s.
  | Ewald reciprocal-space coefficients, myid =     5 : cpu      0.001 s, wall      0.000 s.
  | Ewald reciprocal-space coefficients, myid =     6 : cpu      0.001 s, wall      0.000 s.
  | Ewald reciprocal-space coefficients, myid =     7 : cpu      0.001 s, wall      0.000 s.
  Time summed over all CPUs for potential: real work        0.155 s, elapsed        0.158 s
  | RMS charge density error from multipole expansion :   0.287135E-02
  | Average real-space part of the electrostatic potential :      0.00009679 eV

  Integrating Hamiltonian matrix: batch-based integration.
  Time summed over all CPUs for integration: real work        0.015 s, elapsed        0.017 s
          Integrate hamiltonian matrix                 :  max(cpu_time)    wall_clock(cpu1)
          | Total time                                 :        0.002 s           0.002 s

  Updating Kohn-Sham eigenvalues and eigenvectors using ELSI and the (modified) LAPACK eigensolver.

  Obtaining occupation numbers and chemical potential using ELSI.
  | Chemical potential (Fermi level):    -4.26495122 eV
  Writing Kohn-Sham eigenvalues.
  K-point:       1 at    0.000000    0.000000    0.000000 (in units of recip. lattice)

  State    Occupation    Eigenvalue [Ha]    Eigenvalue [eV]
      1       2.00000          -0.590092          -16.05723
      2       0.00000           1.143341           31.11188

  What follows are estimated values for band gap, HOMO, LUMO, etc.
  | They are estimated on a discrete k-point grid and not necessarily exact.
  | For converged numbers, create a DOS and/or band structure plot on a denser k-grid.

  Highest occupied state (VBM) at     -8.66257485 eV (relative to internal zero)
  | Occupation number:      2.00000000
  | K-point:       6 at    0.461538    0.000000    0.000000 (in units of recip. lattice)

  Lowest unoccupied state (CBM) at    -2.49205938 eV (relative to internal zero)
  | Occupation number:      0.00000000
  | K-point:       6 at    0.461538    0.000000    0.000000 (in units of recip. lattice)

  ESTIMATED overall HOMO-LUMO gap:      6.17051547 eV between HOMO at k-point 6 and LUMO at k-point 6
  | This appears to be a direct band gap.
  The gap value is above 0.2 eV. Unless you are using a very sparse k-point grid,
  this system is most likely an insulator or a semiconductor.

  Total energy components:
  | Sum of eigenvalues            :          -0.97799515 Ha         -26.61260201 eV
  | XC energy correction          :          -0.61805533 Ha         -16.81814129 eV
  | XC potential correction       :           0.80643386 Ha          21.94418187 eV
  | Free-atom electrostatic energy:          -0.18197782 Ha          -4.95186848 eV
  | Hartree energy correction     :          -0.06258092 Ha          -1.70291354 eV
  | Entropy correction            :           0.00000000 Ha           0.00000000 eV
  | ---------------------------
  | Total energy                  :          -1.03417536 Ha         -28.14134344 eV
  | Total energy, T -> 0          :          -1.03417536 Ha         -28.14134344 eV  <-- do not rely on this value for anything but (periodic) metals
  | Electronic free energy        :          -1.03417536 Ha         -28.14134344 eV

  Derived energy quantities:
  | Kinetic energy                :           0.94061888 Ha          25.59554211 eV
  | Electrostatic energy          :          -1.35673891 Ha         -36.91874426 eV
  | Energy correction for multipole
  | error in Hartree potential    :          -0.00017914 Ha          -0.00487462 eV
  | Sum of eigenvalues per atom                           :         -13.30630100 eV
  | Total energy (T->0) per atom                          :         -14.07067172 eV  <-- do not rely on this value for anything but (periodic) metals
  | Electronic free energy per atom                       :         -14.07067172 eV

  Self-consistency convergence accuracy:
  | Change of charge density      :  0.6952E-04
  | Change of sum of eigenvalues  :  0.1631E-01 eV
  | Change of total energy        :  0.5062E-05 eV

  End self-consistency iteration #     5       :  max(cpu_time)    wall_clock(cpu1)
  | Time for this iteration                    :        0.029 s           0.029 s
  | Charge density update                      :        0.002 s           0.002 s
  | Density mixing & preconditioning           :        0.001 s           0.001 s
  | Hartree multipole update                   :        0.001 s           0.001 s
  | Hartree multipole summation                :        0.023 s           0.022 s
  | Integration                                :        0.002 s           0.002 s
  | Solution of K.-S. eqns.                    :        0.000 s           0.000 s
  | Total energy evaluation                    :        0.000 s           0.000 s

  Partial memory accounting:
  | Current value for overall tracked memory usage:
  |   Minimum:        0.002 MB (on task 0)
  |   Maximum:        0.002 MB (on task 1)
  |   Average:        0.002 MB
  | Peak value for overall tracked memory usage:
  |   Minimum:        0.026 MB (on task 0 after allocating wave)
  |   Maximum:        0.089 MB (on task 2 after allocating grid_partition)
  |   Average:        0.051 MB
  | Largest tracked array allocation so far:
  |   Minimum:        0.008 MB (all_coords on task 0)
  |   Maximum:        0.059 MB (all_coords on task 2)
  |   Average:        0.029 MB
  Note:  These values currently only include a subset of arrays which are explicitly tracked.
  The "true" memory usage will be greater.
------------------------------------------------------------

------------------------------------------------------------
          Begin self-consistency iteration #    6

  Date     :  20190817, Time     :  153121.025
------------------------------------------------------------
  Evaluating new KS density using the density matrix
  Evaluating density matrix
  Time summed over all CPUs for getting density from density matrix: real work        0.011 s, elapsed        0.014 s
          Density and Forces (densmat)                 :  max(cpu_time)    wall_clock(cpu1)
          | Total time                                 :        0.002 s           0.002 s
          | Fetch Density Variables time               :        0.000 s           0.000 s
  Integration grid: deviation in total charge (<rho> - N_e) =   0.000000E+00
  Pulay mixing of updated and previous charge densities.

  Evaluating partitioned Hartree potential by multipole expansion.
  | Analytical far-field extrapolation by fixed multipoles:
  | Hartree multipole sum: apparent total charge =  -0.630812E-04
  Summing up the Hartree potential.
  | Ewald reciprocal-space coefficients, myid =     0 : cpu      0.001 s, wall      0.000 s.
  | Ewald reciprocal-space coefficients, myid =     1 : cpu      0.001 s, wall      0.000 s.
  | Ewald reciprocal-space coefficients, myid =     2 : cpu      0.001 s, wall      0.000 s.
  | Ewald reciprocal-space coefficients, myid =     3 : cpu      0.001 s, wall      0.000 s.
  | Ewald reciprocal-space coefficients, myid =     4 : cpu      0.001 s, wall      0.000 s.
  | Ewald reciprocal-space coefficients, myid =     5 : cpu      0.001 s, wall      0.000 s.
  | Ewald reciprocal-space coefficients, myid =     6 : cpu      0.001 s, wall      0.000 s.
  | Ewald reciprocal-space coefficients, myid =     7 : cpu      0.001 s, wall      0.000 s.
  Time summed over all CPUs for potential: real work        0.152 s, elapsed        0.155 s
  | RMS charge density error from multipole expansion :   0.287580E-02
  | Average real-space part of the electrostatic potential :      0.00010101 eV

  Integrating Hamiltonian matrix: batch-based integration.
  Time summed over all CPUs for integration: real work        0.017 s, elapsed        0.019 s
          Integrate hamiltonian matrix                 :  max(cpu_time)    wall_clock(cpu1)
          | Total time                                 :        0.002 s           0.002 s

  Updating Kohn-Sham eigenvalues and eigenvectors using ELSI and the (modified) LAPACK eigensolver.

  Obtaining occupation numbers and chemical potential using ELSI.
  | Chemical potential (Fermi level):    -4.26364663 eV
  Writing Kohn-Sham eigenvalues.
  K-point:       1 at    0.000000    0.000000    0.000000 (in units of recip. lattice)

  State    Occupation    Eigenvalue [Ha]    Eigenvalue [eV]
      1       2.00000          -0.590046          -16.05597
      2       0.00000           1.143394           31.11333

  What follows are estimated values for band gap, HOMO, LUMO, etc.
  | They are estimated on a discrete k-point grid and not necessarily exact.
  | For converged numbers, create a DOS and/or band structure plot on a denser k-grid.

  Highest occupied state (VBM) at     -8.66112832 eV (relative to internal zero)
  | Occupation number:      2.00000000
  | K-point:       6 at    0.461538    0.000000    0.000000 (in units of recip. lattice)

  Lowest unoccupied state (CBM) at    -2.49076868 eV (relative to internal zero)
  | Occupation number:      0.00000000
  | K-point:       6 at    0.461538    0.000000    0.000000 (in units of recip. lattice)

  ESTIMATED overall HOMO-LUMO gap:      6.17035964 eV between HOMO at k-point 6 and LUMO at k-point 6
  | This appears to be a direct band gap.
  The gap value is above 0.2 eV. Unless you are using a very sparse k-point grid,
  this system is most likely an insulator or a semiconductor.

  Total energy components:
  | Sum of eigenvalues            :          -0.97789780 Ha         -26.60995295 eV
  | XC energy correction          :          -0.61807338 Ha         -16.81863227 eV
  | XC potential correction       :           0.80645752 Ha          21.94482556 eV
  | Free-atom electrostatic energy:          -0.18197782 Ha          -4.95186848 eV
  | Hartree energy correction     :          -0.06268396 Ha          -1.70571729 eV
  | Entropy correction            :           0.00000000 Ha           0.00000000 eV
  | ---------------------------
  | Total energy                  :          -1.03417544 Ha         -28.14134541 eV
  | Total energy, T -> 0          :          -1.03417544 Ha         -28.14134541 eV  <-- do not rely on this value for anything but (periodic) metals
  | Electronic free energy        :          -1.03417544 Ha         -28.14134541 eV

  Derived energy quantities:
  | Kinetic energy                :           0.94067044 Ha          25.59694506 eV
  | Electrostatic energy          :          -1.35677250 Ha         -36.91965820 eV
  | Energy correction for multipole
  | error in Hartree potential    :          -0.00017843 Ha          -0.00485527 eV
  | Sum of eigenvalues per atom                           :         -13.30497647 eV
  | Total energy (T->0) per atom                          :         -14.07067271 eV  <-- do not rely on this value for anything but (periodic) metals
  | Electronic free energy per atom                       :         -14.07067271 eV

  Self-consistency convergence accuracy:
  | Change of charge density      :  0.7077E-04
  | Change of sum of eigenvalues  :  0.2649E-02 eV
  | Change of total energy        : -0.1968E-05 eV

  End self-consistency iteration #     6       :  max(cpu_time)    wall_clock(cpu1)
  | Time for this iteration                    :        0.029 s           0.030 s
  | Charge density update                      :        0.002 s           0.002 s
  | Density mixing & preconditioning           :        0.001 s           0.002 s
  | Hartree multipole update                   :        0.001 s           0.000 s
  | Hartree multipole summation                :        0.022 s           0.023 s
  | Integration                                :        0.003 s           0.002 s
  | Solution of K.-S. eqns.                    :        0.000 s           0.000 s
  | Total energy evaluation                    :        0.000 s           0.000 s

  Partial memory accounting:
  | Current value for overall tracked memory usage:
  |   Minimum:        0.002 MB (on task 0)
  |   Maximum:        0.002 MB (on task 1)
  |   Average:        0.002 MB
  | Peak value for overall tracked memory usage:
  |   Minimum:        0.026 MB (on task 0 after allocating wave)
  |   Maximum:        0.089 MB (on task 2 after allocating grid_partition)
  |   Average:        0.051 MB
  | Largest tracked array allocation so far:
  |   Minimum:        0.008 MB (all_coords on task 0)
  |   Maximum:        0.059 MB (all_coords on task 2)
  |   Average:        0.029 MB
  Note:  These values currently only include a subset of arrays which are explicitly tracked.
  The "true" memory usage will be greater.
------------------------------------------------------------

------------------------------------------------------------
          Begin self-consistency iteration #    7

  Date     :  20190817, Time     :  153121.055
------------------------------------------------------------
  Evaluating new KS density using the density matrix
  Evaluating density matrix
  Time summed over all CPUs for getting density from density matrix: real work        0.011 s, elapsed        0.014 s
          Density and Forces (densmat)                 :  max(cpu_time)    wall_clock(cpu1)
          | Total time                                 :        0.002 s           0.002 s
          | Fetch Density Variables time               :        0.000 s           0.000 s
  Integration grid: deviation in total charge (<rho> - N_e) =  -4.440892E-16
  Pulay mixing of updated and previous charge densities.

  Evaluating partitioned Hartree potential by multipole expansion.
  | Analytical far-field extrapolation by fixed multipoles:
  | Hartree multipole sum: apparent total charge =  -0.600388E-04
  Summing up the Hartree potential.
  | Ewald reciprocal-space coefficients, myid =     0 : cpu      0.001 s, wall      0.001 s.
  | Ewald reciprocal-space coefficients, myid =     1 : cpu      0.001 s, wall      0.001 s.
  | Ewald reciprocal-space coefficients, myid =     2 : cpu      0.001 s, wall      0.001 s.
  | Ewald reciprocal-space coefficients, myid =     3 : cpu      0.001 s, wall      0.001 s.
  | Ewald reciprocal-space coefficients, myid =     4 : cpu      0.001 s, wall      0.001 s.
  | Ewald reciprocal-space coefficients, myid =     5 : cpu      0.001 s, wall      0.001 s.
  | Ewald reciprocal-space coefficients, myid =     6 : cpu      0.001 s, wall      0.001 s.
  | Ewald reciprocal-space coefficients, myid =     7 : cpu      0.001 s, wall      0.001 s.
  Time summed over all CPUs for potential: real work        0.154 s, elapsed        0.156 s
  | RMS charge density error from multipole expansion :   0.287596E-02
  | Average real-space part of the electrostatic potential :      0.00010067 eV

  Integrating Hamiltonian matrix: batch-based integration.
  Time summed over all CPUs for integration: real work        0.016 s, elapsed        0.018 s
          Integrate hamiltonian matrix                 :  max(cpu_time)    wall_clock(cpu1)
          | Total time                                 :        0.002 s           0.003 s

  Updating Kohn-Sham eigenvalues and eigenvectors using ELSI and the (modified) LAPACK eigensolver.

  Obtaining occupation numbers and chemical potential using ELSI.
  | Chemical potential (Fermi level):    -4.26371997 eV
  Writing Kohn-Sham eigenvalues.
  K-point:       1 at    0.000000    0.000000    0.000000 (in units of recip. lattice)

  State    Occupation    Eigenvalue [Ha]    Eigenvalue [eV]
      1       2.00000          -0.590049          -16.05604
      2       0.00000           1.143391           31.11325

  What follows are estimated values for band gap, HOMO, LUMO, etc.
  | They are estimated on a discrete k-point grid and not necessarily exact.
  | For converged numbers, create a DOS and/or band structure plot on a denser k-grid.

  Highest occupied state (VBM) at     -8.66119838 eV (relative to internal zero)
  | Occupation number:      2.00000000
  | K-point:       6 at    0.461538    0.000000    0.000000 (in units of recip. lattice)

  Lowest unoccupied state (CBM) at    -2.49084532 eV (relative to internal zero)
  | Occupation number:      0.00000000
  | K-point:       6 at    0.461538    0.000000    0.000000 (in units of recip. lattice)

  ESTIMATED overall HOMO-LUMO gap:      6.17035306 eV between HOMO at k-point 6 and LUMO at k-point 6
  | This appears to be a direct band gap.
  The gap value is above 0.2 eV. Unless you are using a very sparse k-point grid,
  this system is most likely an insulator or a semiconductor.

  Total energy components:
  | Sum of eigenvalues            :          -0.97790314 Ha         -26.61009823 eV
  | XC energy correction          :          -0.61807359 Ha         -16.81863813 eV
  | XC potential correction       :           0.80645781 Ha          21.94483343 eV
  | Free-atom electrostatic energy:          -0.18197782 Ha          -4.95186848 eV
  | Hartree energy correction     :          -0.06267870 Ha          -1.70557409 eV
  | Entropy correction            :           0.00000000 Ha           0.00000000 eV
  | ---------------------------
  | Total energy                  :          -1.03417544 Ha         -28.14134550 eV
  | Total energy, T -> 0          :          -1.03417544 Ha         -28.14134550 eV  <-- do not rely on this value for anything but (periodic) metals
  | Electronic free energy        :          -1.03417544 Ha         -28.14134550 eV

  Derived energy quantities:
  | Kinetic energy                :           0.94067236 Ha          25.59699738 eV
  | Electrostatic energy          :          -1.35677421 Ha         -36.91970476 eV
  | Energy correction for multipole
  | error in Hartree potential    :          -0.00017841 Ha          -0.00485486 eV
  | Sum of eigenvalues per atom                           :         -13.30504912 eV
  | Total energy (T->0) per atom                          :         -14.07067275 eV  <-- do not rely on this value for anything but (periodic) metals
  | Electronic free energy per atom                       :         -14.07067275 eV

  Self-consistency convergence accuracy:
  | Change of charge density      :  0.2980E-05
  | Change of sum of eigenvalues  : -0.1453E-03 eV
  | Change of total energy        : -0.9315E-07 eV

  Preliminary charge convergence reached. Turning off preconditioner.

  Electronic self-consistency reached - switching on the force computation.

  End self-consistency iteration #     7       :  max(cpu_time)    wall_clock(cpu1)
  | Time for this iteration                    :        0.029 s           0.029 s
  | Charge density & force component update    :        0.002 s           0.002 s
  | Density mixing                             :        0.001 s           0.001 s
[...]
  Integrating first_order_rho: batch-based integration.
  Time summed over all CPUs for integration: real work        0.017 s, elapsed        0.020 s

  Evaluating partitioned Hartree potential by multipole expansion.
  | Analytical far-field extrapolation by fixed multipoles:
  | Hartree multipole sum: apparent total charge =   0.000000E+00
  Summing up the Hartree potential.
  Time summed over all CPUs for potential: real work        0.152 s, elapsed        0.153 s
  | RMS delta_rho error from multipole expansion :   0.182144E-02
  | Average real-space part of the electrostatic potential :      0.00000000 eV

  Integrating first-order-Hamiltonian matrix: batch-based integration.
  Time summed over all CPUs for integration: real work        0.021 s, elapsed        0.022 s
 @@@@@@@@time for CPSCF@@@@@@@@@@@@@@@@@@  2.797300000000003E-002

  CP-self-consistency cycle converged.

  End CPSCF iteration #     2                  :  max(cpu_time)    wall_clock(cpu1)
  | Time for this iteration                    :        0.028 s           0.028 s
  | first_order_DM                             :        0.000 s           0.000 s
  | first_order_density                        :        0.003 s           0.003 s
  | first_order_potential                      :        0.022 s           0.023 s
  | first_order_H                              :        0.003 s           0.002 s
  | Solution of Sternheimer eqns.              :        0.000 s           0.000 s
------------------------------------------------------------
  Summing up the Hartree potential.
  Time summed over all CPUs for free_atom_sum_gradient: real work        0.017 s, elapsed        0.020 s

  Integrating first_order_rho: batch-based integration.
  Time summed over all CPUs for integration: real work        0.016 s, elapsed        0.017 s

  Evaluating partitioned Hartree potential by multipole expansion.
  | Analytical far-field extrapolation by fixed multipoles:
  | Hartree multipole sum: apparent total charge =   0.000000E+00
  Summing up the Hartree potential.
  Time summed over all CPUs for potential: real work        0.160 s, elapsed        0.163 s
  | RMS delta_rho error from multipole expansion :   0.182144E-02
  | Average real-space part of the electrostatic potential :      0.00000000 eV

  Integrating first_order_rho: batch-based integration.
  Time summed over all CPUs for integration: real work        0.016 s, elapsed        0.017 s
  Time summed over all CPUs for free_atom_hessian: real work        0.000 s, elapsed        0.000 s

  Integrating Hessian matrix: batch-based integration.
  Time summed over all CPUs for integration: real work        0.289 s, elapsed        0.289 s

                                               :  max(cpu_time)    wall_clock(cpu1)
  | Time for first_order_S of this pertubation :        0.013 s           0.013 s
  | Time for Hessian of this pertubation       :        0.071 s           0.071 s
===========================================================================


===========================================================================
  CPSCF working for i_q_point =    1
  CPSCF working for j_atom =    2     j_coord =    3

==========================================================================

  Integrating Hamiltonian matrix: batch-based integration.
  Time summed over all CPUs for integration: real work        0.096 s, elapsed        0.100 s
  Summing up the Hartree potential.
  Time summed over all CPUs for free_atom_sum_gradient: real work        0.017 s, elapsed        0.018 s


---------------------shanghui@@@CPSCF---------------------------------------
          Begin CP-self-consistency iteration #    1

  Date     :  20190817, Time     :  153122.039
------------------------------------------------------------
 (((((((((((((((((((((((((((((((((
  0.000000000000000E+000
 )))))))))))))))))))))))))))))))))
  Integrating first_order_rho: batch-based integration.
  Time summed over all CPUs for integration: real work        0.018 s, elapsed        0.021 s

  Evaluating partitioned Hartree potential by multipole expansion.
  | Analytical far-field extrapolation by fixed multipoles:
  | Hartree multipole sum: apparent total charge =   0.000000E+00
  Summing up the Hartree potential.
  Time summed over all CPUs for potential: real work        0.154 s, elapsed        0.155 s
  | RMS delta_rho error from multipole expansion :   0.182144E-02
  | Average real-space part of the electrostatic potential :     -0.00000000 eV

  Integrating first-order-Hamiltonian matrix: batch-based integration.
  Time summed over all CPUs for integration: real work        0.021 s, elapsed        0.023 s
 @@@@@@@@time for CPSCF@@@@@@@@@@@@@@@@@@  2.829700000000002E-002
  End CPSCF iteration #     1                  :  max(cpu_time)    wall_clock(cpu1)
  | Time for this iteration                    :        0.028 s           0.028 s
  | first_order_DM                             :        0.000 s           0.000 s
  | first_order_density                        :        0.003 s           0.003 s
  | first_order_potential                      :        0.023 s           0.022 s
  | first_order_H                              :        0.003 s           0.003 s
  | Solution of Sternheimer eqns.              :        0.000 s           0.000 s
------------------------------------------------------------

---------------------shanghui@@@CPSCF---------------------------------------
          Begin CP-self-consistency iteration #    2

  Date     :  20190817, Time     :  153122.067
------------------------------------------------------------
 (((((((((((((((((((((((((((((((((
  1.007038187416526E-015
 )))))))))))))))))))))))))))))))))
  Integrating first_order_rho: batch-based integration.
  Time summed over all CPUs for integration: real work        0.017 s, elapsed        0.021 s

  Evaluating partitioned Hartree potential by multipole expansion.
  | Analytical far-field extrapolation by fixed multipoles:
  | Hartree multipole sum: apparent total charge =   0.000000E+00
  Summing up the Hartree potential.
  Time summed over all CPUs for potential: real work        0.158 s, elapsed        0.160 s
  | RMS delta_rho error from multipole expansion :   0.182144E-02
  | Average real-space part of the electrostatic potential :     -0.00000000 eV

  Integrating first-order-Hamiltonian matrix: batch-based integration.
  Time summed over all CPUs for integration: real work        0.023 s, elapsed        0.024 s
 @@@@@@@@time for CPSCF@@@@@@@@@@@@@@@@@@  2.906799999999987E-002

  CP-self-consistency cycle converged.

  End CPSCF iteration #     2                  :  max(cpu_time)    wall_clock(cpu1)
  | Time for this iteration                    :        0.029 s           0.029 s
  | first_order_DM                             :        0.000 s           0.000 s
  | first_order_density                        :        0.003 s           0.002 s
  | first_order_potential                      :        0.023 s           0.023 s
  | first_order_H                              :        0.003 s           0.004 s
  | Solution of Sternheimer eqns.              :        0.000 s           0.000 s
------------------------------------------------------------
  Summing up the Hartree potential.
  Time summed over all CPUs for free_atom_sum_gradient: real work        0.017 s, elapsed        0.017 s

  Integrating first_order_rho: batch-based integration.
  Time summed over all CPUs for integration: real work        0.017 s, elapsed        0.018 s

  Evaluating partitioned Hartree potential by multipole expansion.
  | Analytical far-field extrapolation by fixed multipoles:
  | Hartree multipole sum: apparent total charge =   0.000000E+00
  Summing up the Hartree potential.
  Time summed over all CPUs for potential: real work        0.161 s, elapsed        0.168 s
  | RMS delta_rho error from multipole expansion :   0.182144E-02
  | Average real-space part of the electrostatic potential :     -0.00000000 eV

  Integrating first_order_rho: batch-based integration.
  Time summed over all CPUs for integration: real work        0.016 s, elapsed        0.018 s
  Time summed over all CPUs for free_atom_hessian: real work        0.001 s, elapsed        0.001 s

  Integrating Hessian matrix: batch-based integration.
  Time summed over all CPUs for integration: real work        0.286 s, elapsed        0.286 s

                                               :  max(cpu_time)    wall_clock(cpu1)
  | Time for first_order_S of this pertubation :        0.013 s           0.013 s
  | Time for Hessian of this pertubation       :        0.072 s           0.072 s
===========================================================================
 
 Total_hessian in cpscf.f90:
 
 hellman_feynman_hessian_free_part in cpscf.f90:
 -0.232972147804E+01  0.000000000000E+00  0.000000000000E+00 -0.788097956029E+02  0.000000000000E+00  0.000000000000E+00
  0.000000000000E+00  0.384976336238E+00  0.000000000000E+00  0.000000000000E+00  0.237148262337E+02  0.000000000000E+00
  0.000000000000E+00  0.000000000000E+00  0.384976336238E+00  0.000000000000E+00  0.000000000000E+00  0.237148262337E+02
 -0.788097956029E+02  0.000000000000E+00  0.000000000000E+00 -0.232972147804E+01  0.000000000000E+00  0.000000000000E+00
  0.000000000000E+00  0.237148262337E+02  0.000000000000E+00  0.000000000000E+00  0.384976336238E+00  0.000000000000E+00
  0.000000000000E+00  0.000000000000E+00  0.237148262337E+02  0.000000000000E+00  0.000000000000E+00  0.384976336238E+00
 
 hellman_feynman_hessian_delta_part in cpscf.f90:
 -0.210616177027E+02 -0.635826487696E-14  0.204765164179E-13  0.210605357371E+02 -0.108887159555E-13  0.117257180425E-13
  0.116231734601E-14 -0.182313131762E+01 -0.157408336670E-15 -0.409594265483E-14 -0.454584812195E+01 -0.141185854279E-15
  0.739164051326E-15 -0.229155290921E-15 -0.182313131798E+01 -0.379669331247E-14 -0.855256223931E-16 -0.454584812195E+01
  0.210605357371E+02  0.151025872588E-13  0.325083983254E-14 -0.210616177027E+02  0.735219638209E-14 -0.164857644976E-13
  0.414280743879E-14 -0.454584812195E+01 -0.160291882475E-15 -0.139469544898E-14 -0.182313131762E+01 -0.140879594524E-15
  0.413137306126E-14 -0.169374508897E-15 -0.454584812195E+01 -0.119341242608E-14 -0.189170077558E-16 -0.182313131798E+01
 
 pulay_hessian in cpscf.f90:
 -0.935145343949E+01 -0.337138714130E-14 -0.387709521249E-13  0.931914938176E+01 -0.170255050635E-13 -0.202283228478E-13
  0.121369937087E-13  0.866108392973E+01 -0.910274528150E-14  0.724848235379E-14 -0.864878304898E+01  0.117998549945E-14
 -0.475365586923E-13 -0.943988399563E-14  0.866108392983E+01  0.121369937087E-13  0.101141614239E-14 -0.864878304894E+01
  0.931914938176E+01  0.606849685433E-14  0.632135088993E-14 -0.935145343949E+01 -0.411309231238E-13  0.539421942607E-14
 -0.404566456956E-14 -0.864878304898E+01  0.387709521249E-14 -0.411309231238E-13  0.866108392973E+01 -0.161826582782E-13
  0.505708071194E-14  0.202283228478E-14 -0.864878304894E+01 -0.215768777043E-13 -0.809132913911E-14  0.866108392983E+01
 
 Make Acoustic sum rule in cpscf.f90:
  0.484301104841E+02  0.139085390749E-13 -0.342924483947E-15 -0.484301104841E+02 -0.139085390749E-13  0.342924483947E-15
 -0.121618119060E-13 -0.105201950628E+02 -0.144612871053E-14  0.121618119060E-13  0.105201950628E+02  0.144612871053E-14
 -0.895624555933E-14 -0.232134692501E-14 -0.105201950628E+02  0.895624555933E-14  0.232134692501E-14  0.105201950628E+02
 -0.484301104841E+02  0.121618119060E-13  0.895624555933E-14  0.484301104841E+02 -0.121618119060E-13 -0.895624555933E-14
 -0.139085390749E-13  0.105201950628E+02  0.232134692501E-14  0.139085390749E-13 -0.105201950628E+02 -0.232134692501E-14
  0.342924483947E-15  0.144612871053E-14  0.105201950628E+02 -0.342924483947E-15 -0.144612871053E-14 -0.105201950628E+02
 
 Get frequencies in cpscf.f90:
 DFPT-Results: 
 
 List of all frequencies found:
  Mode number      Frequency [cm^(-1)]
            1           -2382.53694398
            2           -2382.53694398
            3               0.00002140
            4               0.00004995
            5               0.00005600
            6            5111.93681604
  |------------------------------------------------------
  | Final ELSI Output
  |------------------------------------------------------
  |
  | Physical Properties
  |   Number of electrons       :        0.20000000E+01
  |   Number of states          :                     2
  |
  | Matrix Properties
  |   Matrix format             :           BLACS_DENSE
  |   Number of basis functions :                     2
  |
  | Computational Details
  |   Parallel mode             :           SINGLE_PROC
  |   Solver requested          :                LAPACK
  |   Number of ELSI calls      :                     0
  |
  |------------------------------------------------------
  | ELSI Project (c)  elsi-interchange.org
  |------------------------------------------------------

------------------------------------------------------------------------------
  Final output of selected total energy values:

  The following output summarizes some interesting total energy values
  at the end of a run (AFTER all relaxation, molecular dynamics, etc.).

  | Total energy of the DFT / Hartree-Fock s.c.f. calculation      :            -28.141345505 eV
  | Final zero-broadening corrected energy (caution - metals only) :            -28.141345505 eV
  | For reference only, the value of 1 Hartree used in FHI-aims is :             27.211384500 eV
  | For reference only, the overall average (free atom contribution
  | + realspace contribution) of the electrostatic potential after
  | s.c.f. convergence is                                          :             -0.022521869 eV

  Before relying on these values, please be sure to understand exactly which
  total energy value is referred to by a given number. Different objects may
  all carry the same name 'total energy'. Definitions:

  Total energy of the DFT / Hartree-Fock s.c.f. calculation:
  | Note that this energy does not include ANY quantities calculated after the
  | s.c.f. cycle, in particular not ANY RPA, MP2, etc. many-body perturbation terms.

  Final zero-broadening corrected energy:
  | For metallic systems only, a broadening of the occupation numbers at the Fermi
  | level can be extrapolated back to zero broadening by an electron-gas inspired
  | formula. For all systems that are not real metals, this value can be
  | meaningless and should be avoided.

------------------------------------------------------------------------------
  Methods described in the following list of references were used in this FHI-aims run.
  If you publish the results, please make sure to cite these reference if they apply.
  FHI-aims is an academic code, and for our developers (often, Ph.D. students
  and postdocs), scientific credit in the community is essential.
  Thank you for helping us!

  For any use of FHI-aims, please cite:

    Volker Blum, Ralf Gehrke, Felix Hanke, Paula Havu, Ville Havu,
    Xinguo Ren, Karsten Reuter, and Matthias Scheffler
    'Ab initio molecular simulations with numeric atom-centered orbitals'
    Computer Physics Communications 180, 2175-2196 (2009)
    http://dx.doi.org/10.1016/j.cpc.2009.06.022


  The provided symmetry information was generated with SPGlib:

    Atsushi Togo, Yusuke Seto, Dimitar Pashov
    SPGlib 1.7.3 obtained from http://spglib.sourceforge.net
    Copyright (C) 2008 Atsushi Togo


  The DFPT (perturbation by an atomic displacement) part of the code was used.
  Here is the corresponding reference:

    Honghui Shang, Christian Carbogno, Patrick Rinke and Matthias Scheffler
    'Lattice dynamics calculations based on density-functional
    perturbation theory in real space'
    Computer Physics Communications 215, 26-46 (2017)
    https://doi.org/10.1016/j.cpc.2017.02.001


  The ELSI infrastructure was used in your run to solve the Kohn-Sham electronic structure.
  Please check out http://elsi-interchange.org to learn more.
  If scalability is important for your project, please acknowledge ELSI by citing:

    V. W-z. Yu, F. Corsetti, A. Garcia, W. P. Huhn, M. Jacquelin, W. Jia,
    B. Lange, L. Lin, J. Lu, W. Mi, A. Seifitokaldani, A. Vazquez-Mayagoitia,
    C. Yang, H. Yang, and V. Blum
    'ELSI: A unified software interface for Kohn-Sham electronic structure solvers'
    Computer Physics Communications 222, 267-285 (2018).
    http://dx.doi.org/10.1016/j.cpc.2017.09.007


  For the real-space grid partitioning and parallelization used in this calculation, please cite:

    Ville Havu, Volker Blum, Paula Havu, and Matthias Scheffler,
    'Efficient O(N) integration for all-electron electronic structure calculation'
    'using numerically tabulated basis functions'
    Journal of Computational Physics 228, 8367-8379 (2009).
    http://dx.doi.org/10.1016/j.jcp.2009.08.008

  Of course, there are many other important community references, e.g., those cited in the
  above references. Our list is limited to references that describe implementations in the
  FHI-aims code. The reason is purely practical (length of this list) - please credit others as well.

 * A warning was issued further up regarding the CPU load.
   Some CPUs do not participate in the eigenvalue solution.
   In corner cases, this may be the correct behavior. Otherwise,
   consider using a scalapack/elpa version of the code for a parallel treatment.

------------------------------------------------------------
          Leaving FHI-aims.
          Date     :  20190817, Time     :  153122.170

          Computational steps:
          | Number of self-consistency cycles          :            9
          | Number of SCF (re)initializations          :            1

          Detailed time accounting                     :  max(cpu_time)    wall_clock(cpu1)
          | Total time                                 :        1.455 s           1.463 s
          | Preparation time                           :        0.041 s           0.041 s
          | Boundary condition initalization           :        0.046 s           0.045 s
          | Grid partitioning                          :        0.006 s           0.006 s
          | Preloading free-atom quantities on grid    :        0.002 s           0.002 s
          | Free-atom superposition energy             :        0.001 s           0.001 s
          | Total time for integrations                :        0.026 s           0.025 s
          | Transforming ovlp_3fn to ovlp_3KS          :        0.000 s           0.000 s
          | Total time for solution of K.-S. equations :        0.005 s           0.001 s
          | Total time for density & force components  :        0.027 s           0.026 s
          | Total time for mixing & preconditioning    :        0.011 s           0.012 s
          | Total time for Hartree multipole update    :        0.007 s           0.008 s
          | Total time for Hartree multipole sum       :        0.279 s           0.278 s
          | Total time for total energy evaluation     :        0.002 s           0.004 s

          Partial memory accounting:
          | Residual value for overall tracked memory usage across tasks:     0.000000 MB (should be 0.000000 MB)
          | Peak values for overall tracked memory usage:
          |   Minimum:        0.101 MB (on task 3 after allocating d_wave)
          |   Maximum:        0.111 MB (on task 1 after allocating d_wave)
          |   Average:        0.108 MB
          | Largest tracked array allocation:
          |   Minimum:        0.023 MB (all_coords on task 0)
          |   Maximum:        0.059 MB (all_coords on task 2)
          |   Average:        0.037 MB
          Note:  These values currently only include a subset of arrays which are explicitly tracked.
          The "true" memory usage will be greater.

          Have a nice day.
------------------------------------------------------------
