  MPI-parallelism will be employed.
------------------------------------------------------------
          Invoking FHI-aims ...
          Version 180101-
          Git rev. (modified): fa29f3a Merge branch master of fhiaims.rzberlin.mp[...]
          Compiled on 2018/01/19 at 14:47:46 on host theobook132.

          When using FHI-aims, please cite the following reference:

          Volker Blum, Ralf Gehrke, Felix Hanke, Paula Havu,
          Ville Havu, Xinguo Ren, Karsten Reuter, and Matthias Scheffler,
          'Ab Initio Molecular Simulations with Numeric Atom-Centered Orbitals',
          Computer Physics Communications 180, 2175-2196 (2009)

          For any questions about FHI-aims, please visit the aimsclub website
          with its forums and wiki. Contributions to both the forums and the
          wiki are warmly encouraged - they are for you, and everyone is welcome there.

------------------------------------------------------------



  Date     :  20180214, Time     :  152455.852
  Time zero on CPU 1             :   0.600000000000000E-01  s.
  Internal wall clock time zero  :           287853895.852  s.

  FHI-aims created a unique identifier for this run for later identification
  aims_uuid : 1E873920-344C-4359-AA59-A13E618F8AA6

  Using        8 parallel tasks.
  Task        0 on host theobook132 reporting.
  Task        1 on host theobook132 reporting.
  Task        2 on host theobook132 reporting.
  Task        3 on host theobook132 reporting.
  Task        4 on host theobook132 reporting.
  Task        5 on host theobook132 reporting.
  Task        6 on host theobook132 reporting.
  Task        7 on host theobook132 reporting.

  Performing system and environment tests:
  *** Environment variable OMP_NUM_THREADS is not set
  *** For performance reasons you might want to set it to 1
  | Stacksize not measured: no C compiler
  | Checking for scalapack...
  | No scalapack compiled in.

  Obtaining array dimensions for all initial allocations:
  
  -----------------------------------------------------------------------
  Parsing control.in (first pass over file, find array dimensions only).
  The contents of control.in will be repeated verbatim below
  unless switched off by setting 'verbatim_writeout .false.' .
  in the first line of control.in .
  -----------------------------------------------------------------------
  
  ################################################################################
  #
  #		Control.in generated by mkcontrol
  #
  ################################################################################
  xc			pbe
  vdw_correction_hirshfeld
  charge			0.0
  relativistic		atomic_zora scalar
  
  sc_accuracy_rho		1E-5
  sc_accuracy_eev		1E-3
  sc_accuracy_etot	1E-6
  sc_iter_limit		1000	
  
  compute_forces .true.
  final_forces_cleaned .true.
  
  
  ################################################################################
  #
  #  FHI-aims code project
  # Volker Blum, Fritz Haber Institute Berlin, 2009
  #
  #  Suggested "tight" defaults for H atom (to be pasted into control.in file)
  #
  ################################################################################
    species        H
  #     global species definitions
      nucleus             1
      mass                1.00794
  #
      l_hartree           6
  #
      cut_pot             4.0  2.0  1.0
      basis_dep_cutoff    1e-4
  #
      radial_base         24 7.0
      radial_multiplier   2
      angular_grids       specified
        division   0.1930   50
        division   0.3175  110
        division   0.4293  194
        division   0.5066  302
        division   0.5626  434
  #      division   0.5922  590
  #      division   0.6227  974
  #      division   0.6868 1202
  #      outer_grid  770
        outer_grid  434
  ################################################################################
  #
  #  Definition of "minimal" basis
  #
  ################################################################################
  #     valence basis states
      valence      1  s   1.
  #     ion occupancy
      ion_occ      1  s   0.5
  ################################################################################
  #
  #  Suggested additional basis functions. For production calculations,
  #  uncomment them one after another (the most important basis functions are
  #  listed first).
  #
  #  Basis constructed for dimers: 0.5 A, 0.7 A, 1.0 A, 1.5 A, 2.5 A
  #
  ################################################################################
  #  "First tier" - improvements: -1014.90 meV to -62.69 meV
       hydro 2 s 2.1
       hydro 2 p 3.5
  #  "Second tier" - improvements: -12.89 meV to -1.83 meV
       hydro 1 s 0.85
       hydro 2 p 3.7
       hydro 2 s 1.2
       hydro 3 d 7
  #  "Third tier" - improvements: -0.25 meV to -0.12 meV
  #     hydro 4 f 11.2
  #     hydro 3 p 4.8
  #     hydro 4 d 9
  #     hydro 3 s 3.2
  
  
  
  ################################################################################
  #
  #  FHI-aims code project
  # Volker Blum, Fritz Haber Institute Berlin, 2009
  #
  #  Suggested "tight" defaults for N atom (to be pasted into control.in file)
  #
  ################################################################################
    species        N
  #     global species definitions
      nucleus             7
      mass                14.0067
  #
      l_hartree           6
  #
      cut_pot             4.0  2.0  1.0
      basis_dep_cutoff    1e-4
  #
      radial_base         35 7.0
      radial_multiplier   2
      angular_grids       specified
        division   0.1841   50
        division   0.3514  110
        division   0.5126  194
        division   0.6292  302
        division   0.6939  434
  #      division   0.7396  590
  #      division   0.7632  770
  #      division   0.8122  974
  #      division   1.1604 1202
  #      outer_grid  974
        outer_grid  434
  ################################################################################
  #
  #  Definition of "minimal" basis
  #
  ################################################################################
  #     valence basis states
      valence      2  s   2.
      valence      2  p   3.
  #     ion occupancy
      ion_occ      2  s   1.
      ion_occ      2  p   2.
  ################################################################################
  #
  #  Suggested additional basis functions. For production calculations,
  #  uncomment them one after another (the most important basis functions are
  #  listed first).
  #
  #  Constructed for dimers: 1.0 A, 1.1 A, 1.5 A, 2.0 A, 3.0 A
  #
  ################################################################################
  #  "First tier" - improvements: -1193.42 meV to -220.60 meV
       hydro 2 p 1.8
       hydro 3 d 6.8
       hydro 3 s 5.8
  #  "Second tier" - improvements: -80.21 meV to -6.86 meV
       hydro 4 f 10.8
       hydro 3 p 5.8
       hydro 1 s 0.8
       hydro 5 g 16
       hydro 3 d 4.9
  #  "Third tier" - improvements: -4.29 meV to -0.53 meV
  #     hydro 3 s 16
  #     ionic 2 p auto
  #     hydro 3 d 6.6
  #     hydro 4 f 11.6
  #  "Fourth tier" - improvements: -0.75 meV to -0.25 meV
  #     hydro 2 p 4.5
  #     hydro 2 s 2.4
  #     hydro 5 g 14.4
  #     hydro 4 d 14.4
  #     hydro 4 f 16.8
  # Further basis functions - -0.21 meV and below
  #     hydro 3 p 14.8
  #     hydro 3 s 4.4
  #     hydro 3 d 19.6
  #     hydro 5 g 12.8
  
  -----------------------------------------------------------------------
  Completed first pass over input file control.in .
  -----------------------------------------------------------------------
  
  
  -----------------------------------------------------------------------
  Parsing geometry.in (first pass over file, find array dimensions only).
  The contents of geometry.in will be repeated verbatim below
  unless switched off by setting 'verbatim_writeout .false.' .
  in the first line of geometry.in .
  -----------------------------------------------------------------------
  
  #=======================================#
  # iterations/iteration0064/aims-chain-node-0.88889/geometry.in
  #=======================================#
  atom -0.0000000000001406 -0.0000010807103927 0.0964583378773213 N
  atom 0.8170982373532718 -0.4717389209259208 -0.2941328953754695 H
  atom -0.8170982373532478 -0.4717389209260351 -0.2941328953754052 H
  atom 0.0000000000001149 0.9435014225623576 -0.2941340254487093 H
  
  -----------------------------------------------------------------------
  Completed first pass over input file geometry.in .
  -----------------------------------------------------------------------
  

  Basic array size parameters:
  | Number of species                 :        2
  | Number of atoms                   :        4
  | Max. basis fn. angular momentum   :        4
  | Max. atomic/ionic basis occupied n:        2
  | Max. number of basis fn. types    :        2
  | Max. radial fns per species/type  :        8
  | Max. logarithmic grid size        :     1290
  | Max. radial integration grid size :       71
  | Max. angular integration grid size:      434
  | Max. angular grid division number :        8
  | Radial grid for Hartree potential :     1290
  | Number of spin channels           :        1

------------------------------------------------------------
          Reading file control.in.
------------------------------------------------------------
  XC: Using PBE gradient-corrected functionals.
  Charge =   0.000000E+00: Neutral system requested explicitly.
  Scalar relativistic treatment of kinetic energy: on-site free-atom approximation to ZORA.
  Convergence accuracy of self-consistent charge density:  0.1000E-04
  Convergence accuracy of sum of eigenvalues:  0.1000E-02
  Convergence accuracy of total energy:  0.1000E-05
  Maximum number of s.-c. iterations  :  1000
  Forces will be computed.
  Cleaning forces before final output.
 
  Reading configuration options for species H                   .
  | Found nuclear charge :   1.0000
  | Found atomic mass :    1.00794000000000      amu
  | Found l_max for Hartree potential  :   6
  | Found cutoff potl. onset [A], width [A], scale factor :    4.00000    2.00000    1.00000
  | Threshold for basis-dependent cutoff potential is   0.100000E-03
  | Found data for basic radial integration grid :    24 points, outermost radius =    7.000 A
  | Found multiplier for basic radial grid :   2
  | Found angular grid specification: user-specified.
  | Specified grid contains     6 separate shells.
  | Check grid settings after all constraints further below.
  | Found free-atom valence shell :  1 s   1.000
  | No ionic wave fns used. Skipping ion_occ.
  | Found hydrogenic basis function :  2 s   2.100
  | Found hydrogenic basis function :  2 p   3.500
  | Found hydrogenic basis function :  1 s   0.850
  | Found hydrogenic basis function :  2 p   3.700
  | Found hydrogenic basis function :  2 s   1.200
  | Found hydrogenic basis function :  3 d   7.000
  Species H                   : Missing cutoff potential type.
  Defaulting to exp(1/x)/(1-x)^2 type cutoff potential.
  Species H : No 'logarithmic' tag. Using default grid for free atom:
  | Default logarithmic grid data [bohr] : 0.1000E-03 0.1000E+03 0.1012E+01
  Species H : On-site basis accuracy parameter (for Gram-Schmidt orthonormalisation) not specified.
  Using default value basis_acc =  0.1000000E-03.
  Species H                   : Using default innermost maximum threshold i_radial=  2 for radial functions.
  Species H                   : Default cutoff onset for free atom density etc. : 0.40000000E+01 AA.
  Species H                   : Basic radial grid will be enhanced according to radial_multiplier =   2, to contain    49 grid points.
 
  Reading configuration options for species N                   .
  | Found nuclear charge :   7.0000
  | Found atomic mass :    14.0067000000000      amu
  | Found l_max for Hartree potential  :   6
  | Found cutoff potl. onset [A], width [A], scale factor :    4.00000    2.00000    1.00000
  | Threshold for basis-dependent cutoff potential is   0.100000E-03
  | Found data for basic radial integration grid :    35 points, outermost radius =    7.000 A
  | Found multiplier for basic radial grid :   2
  | Found angular grid specification: user-specified.
  | Specified grid contains     6 separate shells.
  | Check grid settings after all constraints further below.
  | Found free-atom valence shell :  2 s   2.000
  | Found free-atom valence shell :  2 p   3.000
  | No ionic wave fns used. Skipping ion_occ.
  | No ionic wave fns used. Skipping ion_occ.
  | Found hydrogenic basis function :  2 p   1.800
  | Found hydrogenic basis function :  3 d   6.800
  | Found hydrogenic basis function :  3 s   5.800
  | Found hydrogenic basis function :  4 f  10.800
  | Found hydrogenic basis function :  3 p   5.800
  | Found hydrogenic basis function :  1 s   0.800
  | Found hydrogenic basis function :  5 g  16.000
  | Found hydrogenic basis function :  3 d   4.900
  Species N                   : Missing cutoff potential type.
  Defaulting to exp(1/x)/(1-x)^2 type cutoff potential.
  Species N : No 'logarithmic' tag. Using default grid for free atom:
  | Default logarithmic grid data [bohr] : 0.1000E-03 0.1000E+03 0.1012E+01
  Species N : On-site basis accuracy parameter (for Gram-Schmidt orthonormalisation) not specified.
  Using default value basis_acc =  0.1000000E-03.
  Species N                   : Using default innermost maximum threshold i_radial=  2 for radial functions.
  Species N                   : Default cutoff onset for free atom density etc. : 0.40000000E+01 AA.
  Species N                   : Basic radial grid will be enhanced according to radial_multiplier =   2, to contain    71 grid points.
 
  Finished reading input file 'control.in'. Consistency checks are next.
 
  MPI_IN_PLACE appears to work with this MPI implementation.
  | Keeping use_mpi_in_place .true. (see manual).
  Target number of points in a grid batch is not set. Defaulting to  100
  Method for grid partitioning is not set. Defaulting to parallel hash+maxmin partitioning.
  Batch size limit is not set. Defaulting to    200
  By default, will store active basis functions for each batch.
  If in need of memory, prune_basis_once .false. can be used to disable this option.
  communication_type for Hartree potential was not specified.
  Defaulting to calc_hartree .
  Defaulting to Pulay charge density mixer.
  Pulay mixer: Number of relevant iterations not set.
  Defaulting to    8 iterations.
  Pulay mixer: Number of initial linear mixing iterations not set.
  Defaulting to    0 iterations.
  Work space size for distributed Hartree potential not set.
  Defaulting to   0.200000E+03 MB.
  Mixing parameter for charge density mixing has not been set.
  Using default: charge_mix_param =     0.0500.
  The mixing parameter will be adjusted in iteration number     2 of the first full s.c.f. cycle only.
  Algorithm-dependent basis array size parameters:
  | n_max_pulay                         :        8
  Presetting        40 iterations before the initial mixing cycle
  is restarted anyway using the sc_init_iter criterion / keyword.
  Presetting a factor      1.000 between actual scf density residual
  and density convergence criterion sc_accuracy_rho below which sc_init_iter
  takes no effect.
  Geometry relaxation not requested: no relaxation will be performed.
  Force calculation: scf convergence accuracy of forces not set.
  Defaulting to 'sc_accuracy_forces not_checked'.
  Handling of forces: Unphysical translation and rotation will be removed from forces.
  No accuracy limit for integral partition fn. given. Defaulting to  0.1000E-14.
  No threshold value for u(r) in integrations given. Defaulting to  0.1000E-05.
  No occupation type (smearing scheme) given. Defaulting to Gaussian broadening, width =  0.1000E-01 eV.
  The width will be adjusted in iteration number     2 of the first full s.c.f. cycle only.
  S.C.F. convergence parameters will be adjusted in iteration number     2 of the first full s.c.f. cycle only.
  No accuracy for occupation numbers given. Defaulting to  0.1000E-12.
  No threshold value for occupation numbers given. Defaulting to  0.0000E+00.
  No accuracy for fermi level given. Defaulting to  0.1000E-19.
  Maximum # of iterations to find E_F not set. Defaulting to  200.
  Preferred method for the eigenvalue solver ('KS_method') not specified in 'control.in'.
  Calling BLACS routine to test compilation state
  The best choice would be 'elsi', but your version of FHI-aims is compiled without ScaLAPACK support.
  Defaulting to 'lapack_fast' instead (serial solution, time will not improve with more CPUs).
  Will not use alltoall communication since running on < 1024 CPUs.
  Threshold for basis singularities not set.
  Default threshold for basis singularities:  0.1000E-04
  partition_type (choice of integration weights) for integrals was not specified.
  | Using a version of the partition function of Stratmann and coworkers ('stratmann_smoother').
  | At each grid point, the set of atoms used to build the partition table is smoothly restricted to
  | only those atoms whose free-atom density would be non-zero at that grid point.
  Partitioning for Hartree potential was not defined. Using partition_type for integrals.
  | Adjusted default value of keyword multip_moments_threshold to:       0.10000000E-11
  | This value may affect high angular momentum components of the Hartree potential in periodic systems.
  Spin handling was not defined in control.in. Defaulting to unpolarized case.
  No q(lm)/r^(l+1) cutoff set for long-range Hartree potential.
  | Using default value of  0.100000E-09 .
  | Verify using the multipole_threshold keyword.
  Defaulting to new monopole extrapolation.
  Density update method: automatic selection selected.
------------------------------------------------------------


------------------------------------------------------------
          Reading geometry description geometry.in.
------------------------------------------------------------
  Input structure read successfully.
  The structure contains        4 atoms,  and a total of         10.000 electrons.

  Input geometry:
  | No unit cell requested.
  | Atomic structure:
  |       Atom                x [A]            y [A]            z [A]
  |    1: Species N            -0.00000000       -0.00000108        0.09645834
  |    2: Species H             0.81709824       -0.47173892       -0.29413290
  |    3: Species H            -0.81709824       -0.47173892       -0.29413290
  |    4: Species H             0.00000000        0.94350142       -0.29413403
  |

  | The smallest distance between any two atoms is         1.02115015 AA.
  |
  | The first atom of this pair is atom number                      1 .
  | The second atom of this pair is atom number                     3 .

  Number of empty states per atom not set in control.in - providing a guess from actual geometry.
  | Total number of empty states used during s.c.f. cycle:        8
  If you use a very high smearing, use empty_states (per atom!) in control.in to increase this value.

  Structure-dependent array size parameters: 
  | Maximum number of distinct radial functions  :       18
  | Maximum number of basis functions            :       84
  | Number of Kohn-Sham states (occupied + empty):       13
------------------------------------------------------------

------------------------------------------------------------
          Preparing all fixed parts of the calculation.
------------------------------------------------------------
  Determining machine precision:
    2.225073858507201E-308
  Setting up grids for atomic and cluster calculations.

  Creating wave function, potential, and density for free atoms.

  Species: H

  List of occupied orbitals and eigenvalues:
    n    l              occ      energy [Ha]    energy [eV]
    1    0           1.0000        -0.238386        -6.4868


  Species: N

  List of occupied orbitals and eigenvalues:
    n    l              occ      energy [Ha]    energy [eV]
    1    0           2.0000       -14.144983      -384.9046
    2    0           2.0000        -0.682735       -18.5782
    2    1           3.0000        -0.260361        -7.0848

  Creating fixed part of basis set: Ionic, confined, hydrogenic.
 
  H                    hydrogenic:
 
  List of hydrogenic basis orbitals: 
    n    l      effective z      eigenvalue [eV]  inner max. [A]     outer max. [A]     outer radius [A]   
    2    0         2.100000       -14.9965           0.193243           1.317208           5.373006
    2    1         3.500000       -41.6672           0.602369           0.602369           4.056063
    1    0         0.850000        -9.8292           0.624871           0.624871           5.373006
    2    1         3.700000       -46.5653           0.573622           0.573622           3.910002
    2    0         1.200000        -4.5995           0.334980           2.228188           5.505995
    3    2         7.000000       -74.0753           0.680699           0.680699           3.769201
 
 
  N                    hydrogenic:
 
  List of hydrogenic basis orbitals: 
    n    l      effective z      eigenvalue [eV]  inner max. [A]     outer max. [A]     outer radius [A]   
    2    1         1.800000       -11.0118           1.177451           1.177451           5.427479
    3    2         6.800000       -69.9029           0.704619           0.704619           3.854246
    3    0         5.800000       -50.8549           0.067388           1.191934           4.629968
    4    3        10.800000       -99.1854           0.786571           0.786571           3.761152
    3    1         5.800000       -50.8549           0.274880           1.094176           4.518138
    1    0         0.800000        -8.7059           0.662839           0.662839           5.361532
    5    4        16.000000      -139.3222           0.825990           0.825990           3.625711
    3    2         4.900000       -36.2967           0.968267           0.968267           4.862000
 

  Adding cutoff potential to free-atom effective potential.
  Creating atomic-like basis functions for current effective potential.

  Species H                   :

  List of atomic basis orbitals and eigenvalues:
    n    l      energy [Ha]    energy [eV]    outer radius [A]
    1    0        -0.238386        -6.4868       5.373006


  Species N                   :

  List of atomic basis orbitals and eigenvalues:
    n    l      energy [Ha]    energy [eV]    outer radius [A]
    1    0       -14.144983      -384.9046       1.637919
    2    0        -0.682735       -18.5782       5.168461
    2    1        -0.260361        -7.0848       5.361532

  Assembling full basis from fixed parts.
  | Species H :   atomic orbital   1 s accepted.
  | Species H :    hydro orbital   2 s accepted.
  | Species H :    hydro orbital   1 s accepted.
  | Species H :    hydro orbital   2 s accepted.
  | Species H :    hydro orbital   2 p accepted.
  | Species H :    hydro orbital   2 p accepted.
  | Species H :    hydro orbital   3 d accepted.
  | Species N :   atomic orbital   1 s accepted.
  | Species N :    hydro orbital   3 s accepted.
  | Species N :   atomic orbital   2 s accepted.
  | Species N :    hydro orbital   1 s accepted.
  | Species N :    hydro orbital   3 p accepted.
  | Species N :   atomic orbital   2 p accepted.
  | Species N :    hydro orbital   2 p accepted.
  | Species N :    hydro orbital   3 d accepted.
  | Species N :    hydro orbital   3 d accepted.
  | Species N :    hydro orbital   4 f accepted.
  | Species N :    hydro orbital   5 g accepted.
 
  Basis size parameters after reduction:
  | Total number of radial functions:       18
  | Total number of basis functions :       84
 
  Per-task memory consumption for arrays in subroutine allocate_ext:
  |           5.947464MB.
  Testing on-site integration grid accuracy.
  |  Species  Function  <phi|h_atom|phi> (log., in eV)  <phi|h_atom|phi> (rad., in eV)
           1        1                 -6.4870767962                 -6.4871688290
           1        2                 13.5032046589                 13.5028982997
           1        3                 32.8195184817                 32.8119941656
           1        4                 33.8513856511                 33.7670005767 ***
           1        5                 28.8544614965                 28.8544615203
           1        6                 59.6326952547                 59.6327656460
           1        7                 60.2719308513                 60.2719305949
           2        8               -384.9045837915               -384.9045810047
           2        9                 12.5603464973                 12.5603454944
           2       10                -15.7898975011                -15.7898975786
           2       11                 26.9245114620                 26.9252865209
           2       12                 18.5932197354                 18.5932205971
           2       13                  1.2241635029                  1.2241662160
           2       14                 13.4399987723                 13.4405112378
           2       15                 35.9434723763                 35.9434722968
           2       16                 39.9236994472                 39.9237117157
           2       17                 72.9994981058                 72.9994982098
           2       18                116.4255814536                116.4255814825
 * Note: Onsite integrals marked "***" above are less accurate than
 * onsite_accuracy_threshold =    0.03000 eV. Usually, this is harmless.
 * When in doubt, tighten the "radial" and/or "radial_multiplier" flags to check.

  Preparing densities etc. for the partition functions (integrals / Hartree potential).

  Preparations completed.
  max(cpu_time)          :      0.232 s.
  Wall clock time (cpu1) :      0.241 s.
------------------------------------------------------------

------------------------------------------------------------
          Begin self-consistency loop: Initialization.

          Date     :  20180214, Time     :  152456.112
------------------------------------------------------------

  Initializing index lists of integration centers etc. from given atomic structure:
  | Number of centers in hartree potential         :         4
  | Number of centers in hartree multipole         :         4
  | Number of centers in electron density summation:         4
  | Number of centers in basis integrals           :         4
  | Number of centers in integrals                 :         4
  | Number of centers in hamiltonian               :         4
  Partitioning the integration grid into batches with parallel hashing+maxmin method.
  | Number of batches:      753
  | Maximal batch size:     200
  | Minimal batch size:      49
  | Average batch size:      83.671
  | Standard deviation of batch sizes:      23.256

  Integration load balanced across     8 MPI tasks.
  Work distribution over tasks is as follows:
  Task     0 has       7849 integration points.
  Task     1 has       7821 integration points.
  Task     2 has       7877 integration points.
  Task     3 has       7903 integration points.
  Task     4 has       7853 integration points.
  Task     5 has       7802 integration points.
  Task     6 has       7922 integration points.
  Task     7 has       7977 integration points.
  Initializing partition tables, free-atom densities, potentials, etc. across the integration grid (initialize_grid_storage).
  | initialize_grid_storage: Actual outermost partition radius vs. multipole_radius_free
  | (-- VB: in principle, multipole_radius_free should be larger, hence this output)
  | Species        1: Confinement radius =              6.000000000000000 AA, multipole_radius_free =              6.071692442739658 AA.
  | Species        1: outer_partition_radius set to              6.071692442739658 AA .
  | Species        2: Confinement radius =              6.000000000000000 AA, multipole_radius_free =              6.058726835495003 AA.
  | Species        2: outer_partition_radius set to              6.058726835495003 AA .
  | Original list of interatomic distances with           4 x          4 entries is created.
  | Net number of integration points:    63004
  | of which are non-zero points    :    54779
  Renormalizing the initial density to the exact electron count on the 3D integration grid.
  | Initial density: Formal number of electrons (from input files) :      10.0000000000
  | Integrated number of electrons on 3D grid     :       9.9999994960
  | Charge integration error                      :      -0.0000005040
  | Normalization factor for density and gradient :       1.0000000504
  Obtaining max. number of non-zero basis functions in each batch (get_n_compute_maxes).
  | Maximal number of non-zero basis functions:       84 in task     0
  | Maximal number of non-zero basis functions:       84 in task     1
  | Maximal number of non-zero basis functions:       84 in task     2
  | Maximal number of non-zero basis functions:       84 in task     3
  | Maximal number of non-zero basis functions:       84 in task     4
  | Maximal number of non-zero basis functions:       84 in task     5
  | Maximal number of non-zero basis functions:       84 in task     6
  | Maximal number of non-zero basis functions:       84 in task     7
  Selecting the method for density update.
  Loop over occupied states selected for charge density update.
  Allocating        0.009 MB for KS_eigenvector
  Integrating Hamiltonian matrix: batch-based integration.
  Time summed over all CPUs for integration: real work        1.166 s, elapsed        1.237 s
  Integrating overlap matrix.
  Time summed over all CPUs for integration: real work        0.403 s, elapsed        0.430 s

  Updating Kohn-Sham eigenvalues, eigenvectors, occupation numbers, and Fermi level.
  Solving generalized eigenproblem
  Updating Kohn-Sham eigenvalues and eigenfunctions.
  Transforming overlap matrix and checking for singularities.
  Overlap matrix is nonsingular:
  | Lowest eigenvalue:  0.149534E-03
  Solving real generalised eigenvalue problem by standard LAPACK (fast)

  Obtaining occupation numbers and chemical potential using ELSI.
  | Chemical potential (Fermi level):    -6.62188861eV
  Writing Kohn-Sham eigenvalues.

  State    Occupation    Eigenvalue [Ha]    Eigenvalue [eV]
      1       2.00000         -14.278529         -388.53854
      2       2.00000          -0.974148          -26.50792
      3       2.00000          -0.590591          -16.07080
      4       2.00000          -0.590586          -16.07066
      5       2.00000          -0.421561          -11.47125
      6       0.00000          -0.065550           -1.78371
      7       0.00000          -0.001476           -0.04016
      8       0.00000          -0.001475           -0.04013
      9       0.00000           0.078608            2.13902
     10       0.00000           0.078611            2.13911
     11       0.00000           0.103278            2.81033
     12       0.00000           0.129812            3.53237
     13       0.00000           0.209398            5.69800

  Highest occupied state (VBM) at    -11.47124603 eV
  | Occupation number:      2.00000000

  Lowest unoccupied state (CBM) at    -1.78371202 eV
  | Occupation number:      0.00000000

  Overall HOMO-LUMO gap:      9.68753400 eV.
  Calculating total energy contributions from superposition of free atom densities.

  Total energy components:
  | Sum of eigenvalues            :         -33.71082983 Ha        -917.31835233 eV
  | XC energy correction          :          -7.66576739 Ha        -208.59614395 eV
  | XC potential correction       :           9.85088429 Ha         268.05620000 eV
  | Free-atom electrostatic energy:         -25.15126482 Ha        -684.40073759 eV
  | Hartree energy correction     :           0.00000000 Ha           0.00000000 eV
  | vdW energy correction         :           0.00000000 Ha           0.00000000 eV
  | Entropy correction            :           0.00000000 Ha           0.00000000 eV
  | ---------------------------
  | Total energy                  :         -56.67697775 Ha       -1542.25903387 eV
  | Total energy, T -> 0          :         -56.67697775 Ha       -1542.25903387 eV  <-- do not rely on this value for anything but (periodic) metals
  | Electronic free energy        :         -56.67697775 Ha       -1542.25903387 eV

  Derived energy quantities:
  | Kinetic energy                :          55.54372454 Ha        1511.42164500 eV
  | Electrostatic energy          :        -104.55493490 Ha       -2845.08453491 eV
  | Energy correction for multipole
  | error in Hartree potential    :           0.00000000 Ha           0.00000000 eV
  | Sum of eigenvalues per atom                           :        -229.32958808 eV
  | Total energy (T->0) per atom                          :        -385.56475847 eV  <-- do not rely on this value for anything but (periodic) metals
  | Electronic free energy per atom                       :        -385.56475847 eV
  Initialize hartree_potential_storage
  Max. number of atoms included in rho_multipole:            4

  End scf initialization - timings             :  max(cpu_time)    wall_clock(cpu1)
  | Time for scf. initialization               :        0.356 s           0.358 s
  | Boundary condition initialization          :        0.000 s           0.000 s
  | Integration                                :        0.208 s           0.205 s
  | Solution of K.-S. eqns.                    :        0.008 s           0.009 s
  | Grid partitioning                          :        0.064 s           0.064 s
  | Preloading free-atom quantities on grid    :        0.020 s           0.020 s
  | Free-atom superposition energy             :        0.016 s           0.016 s
  | Total energy evaluation                    :        0.000 s           0.001 s

  Partial memory accounting:
  | Current value for overall tracked memory usage on task 0  :           0.123 MB
  | Peak value for overall tracked memory usage on task 0     :           0.528 MB after allocating wave
  | Largest tracked array allocation on task 0 so far         :           0.134 MB  when allocating H_times_psi
  Note:  These values currently only include a subset of arrays which are explicitly tracked.
  The "true" memory usage will be greater.
------------------------------------------------------------

------------------------------------------------------------
          Begin self-consistency iteration #    1

  Date     :  20180214, Time     :  152456.471
------------------------------------------------------------
  Evaluating new KS density.
  Integration grid: deviation in total charge (<rho> - N_e) =   3.552714E-15
  Pulay mixing of updated and previous charge densities.

  Evaluating partitioned Hartree potential by multipole expansion.
  | Analytical far-field extrapolation by fixed multipoles:
  | Hartree multipole sum: apparent total charge =  -0.672895E-06
  Summing up the Hartree potential.
  Time summed over all CPUs for potential: real work        0.885 s, elapsed        1.017 s
  | RMS charge density error from multipole expansion :   0.196968E-03

  Integrating Hamiltonian matrix: batch-based integration.
  Time summed over all CPUs for integration: real work        1.151 s, elapsed        1.212 s

  Updating Kohn-Sham eigenvalues, eigenvectors, occupation numbers, and Fermi level.
  Solving generalized eigenproblem
  Updating Kohn-Sham eigenvalues and eigenfunctions.
  Solving real generalised eigenvalue problem by standard LAPACK (fast)

  Obtaining occupation numbers and chemical potential using ELSI.
  | Chemical potential (Fermi level):    -6.45175115eV
  Writing Kohn-Sham eigenvalues.

  State    Occupation    Eigenvalue [Ha]    Eigenvalue [eV]
      1       2.00000         -14.234200         -387.33229
      2       2.00000          -0.952738          -25.92531
      3       2.00000          -0.571344          -15.54706
      4       2.00000          -0.571339          -15.54692
      5       2.00000          -0.399037          -10.85836
      6       0.00000          -0.060898           -1.65712
      7       0.00000           0.003498            0.09519
      8       0.00000           0.003499            0.09522
      9       0.00000           0.083572            2.27412
     10       0.00000           0.083575            2.27420
     11       0.00000           0.109278            2.97361
     12       0.00000           0.134302            3.65456
     13       0.00000           0.214422            5.83472

  Highest occupied state (VBM) at    -10.85835661 eV
  | Occupation number:      2.00000000

  Lowest unoccupied state (CBM) at    -1.65712024 eV
  | Occupation number:      0.00000000

  Overall HOMO-LUMO gap:      9.20123637 eV.

  Total energy components:
  | Sum of eigenvalues            :         -33.45731529 Ha        -910.41987057 eV
  | XC energy correction          :          -7.69430676 Ha        -209.37273967 eV
  | XC potential correction       :           9.88811216 Ha         269.06922189 eV
  | Free-atom electrostatic energy:         -25.15126482 Ha        -684.40073759 eV
  | Hartree energy correction     :          -0.23712138 Ha          -6.45240110 eV
  | vdW energy correction         :           0.00000000 Ha           0.00000000 eV
  | Entropy correction            :           0.00000000 Ha           0.00000000 eV
  | ---------------------------
  | Total energy                  :         -56.65189609 Ha       -1541.57652704 eV
  | Total energy, T -> 0          :         -56.65189609 Ha       -1541.57652704 eV  <-- do not rely on this value for anything but (periodic) metals
  | Electronic free energy        :         -56.65189609 Ha       -1541.57652704 eV

  Derived energy quantities:
  | Kinetic energy                :          55.71470394 Ha        1516.07423132 eV
  | Electrostatic energy          :        -104.67229327 Ha       -2848.27801869 eV
  | Energy correction for multipole
  | error in Hartree potential    :          -0.00026404 Ha          -0.00718494 eV
  | Sum of eigenvalues per atom                           :        -227.60496764 eV
  | Total energy (T->0) per atom                          :        -385.39413176 eV  <-- do not rely on this value for anything but (periodic) metals
  | Electronic free energy per atom                       :        -385.39413176 eV

  Self-consistency convergence accuracy:
  | Change of charge density      :  0.3433E+00
  | Change of sum of eigenvalues  :  0.6898E+01 eV
  | Change of total energy        :  0.6825E+00 eV

  End self-consistency iteration #     1       :  max(cpu_time)    wall_clock(cpu1)
  | Time for this iteration                    :        0.428 s           0.427 s
  | Charge density update                      :        0.132 s           0.130 s
  | Density mixing                             :        0.004 s           0.002 s
  | Hartree multipole update                   :        0.016 s           0.015 s
  | Hartree multipole summation                :        0.128 s           0.126 s
  | Integration                                :        0.152 s           0.149 s
  | Solution of K.-S. eqns.                    :        0.004 s           0.002 s
  | Total energy evaluation                    :        0.000 s           0.000 s

  Partial memory accounting:
  | Current value for overall tracked memory usage on task 0  :           0.123 MB
  | Peak value for overall tracked memory usage on task 0     :           0.661 MB after allocating gradient_basis_wave
  | Largest tracked array allocation on task 0 so far         :           0.403 MB  when allocating gradient_basis_wave
  Note:  These values currently only include a subset of arrays which are explicitly tracked.
  The "true" memory usage will be greater.
------------------------------------------------------------

------------------------------------------------------------
          Begin self-consistency iteration #    2

  Date     :  20180214, Time     :  152456.899
------------------------------------------------------------
  Evaluating new KS density.
  Integration grid: deviation in total charge (<rho> - N_e) =  -7.105427E-15
  Pulay mixing of updated and previous charge densities.

  Evaluating partitioned Hartree potential by multipole expansion.
  | Analytical far-field extrapolation by fixed multipoles:
  | Hartree multipole sum: apparent total charge =  -0.124578E-05
  Summing up the Hartree potential.
  Time summed over all CPUs for potential: real work        0.888 s, elapsed        0.952 s
  | RMS charge density error from multipole expansion :   0.142422E-02

  Integrating Hamiltonian matrix: batch-based integration.
  Time summed over all CPUs for integration: real work        1.159 s, elapsed        1.212 s

  Updating Kohn-Sham eigenvalues, eigenvectors, occupation numbers, and Fermi level.
  Solving generalized eigenproblem
  Updating Kohn-Sham eigenvalues and eigenfunctions.
  Solving real generalised eigenvalue problem by standard LAPACK (fast)

  Obtaining occupation numbers and chemical potential using ELSI.
  | Chemical potential (Fermi level):    -5.36888236eV
  Highest occupied state (VBM) at     -7.35032839 eV
  | Occupation number:      2.00000000

  Lowest unoccupied state (CBM) at    -0.94557901 eV
  | Occupation number:      0.00000000

  Overall HOMO-LUMO gap:      6.40474938 eV.

  Checking to see if s.c.f. parameters should be adjusted.
  The system likely has a gap. Increased the default Pulay mixing parameter (charge_mix_param). Value:   0.200000 .
  Kept the default occupation width. Value:   0.010000 eV.

  Total energy components:
  | Sum of eigenvalues            :         -31.98935369 Ha        -870.47460321 eV
  | XC energy correction          :          -7.87175421 Ha        -214.20133039 eV
  | XC potential correction       :          10.11951795 Ha         275.36609399 eV
  | Free-atom electrostatic energy:         -25.15126482 Ha        -684.40073759 eV
  | Hartree energy correction     :          -1.67994983 Ha         -45.71376078 eV
  | vdW energy correction         :           0.00000000 Ha           0.00000000 eV
  | Entropy correction            :           0.00000000 Ha           0.00000000 eV
  | ---------------------------
  | Total energy                  :         -56.57280459 Ha       -1539.42433798 eV
  | Total energy, T -> 0          :         -56.57280459 Ha       -1539.42433798 eV  <-- do not rely on this value for anything but (periodic) metals
  | Electronic free energy        :         -56.57280459 Ha       -1539.42433798 eV

  Derived energy quantities:
  | Kinetic energy                :          56.60475376 Ha        1540.29371912 eV
  | Electrostatic energy          :        -105.30580415 Ha       -2865.51672670 eV
  | Energy correction for multipole
  | error in Hartree potential    :          -0.00182526 Ha          -0.04966792 eV
  | Sum of eigenvalues per atom                           :        -217.61865080 eV
  | Total energy (T->0) per atom                          :        -384.85608449 eV  <-- do not rely on this value for anything but (periodic) metals
  | Electronic free energy per atom                       :        -384.85608449 eV

  Self-consistency convergence accuracy:
  | Change of charge density      :  0.3033E+00
  | Change of sum of eigenvalues  :  0.3995E+02 eV
  | Change of total energy        :  0.2152E+01 eV

  End self-consistency iteration #     2       :  max(cpu_time)    wall_clock(cpu1)
  | Time for this iteration                    :        0.420 s           0.417 s
  | Charge density update                      :        0.128 s           0.127 s
  | Density mixing                             :        0.004 s           0.003 s
  | Hartree multipole update                   :        0.016 s           0.016 s
  | Hartree multipole summation                :        0.116 s           0.118 s
  | Integration                                :        0.152 s           0.149 s
  | Solution of K.-S. eqns.                    :        0.004 s           0.002 s
  | Total energy evaluation                    :        0.000 s           0.001 s

  Partial memory accounting:
  | Current value for overall tracked memory usage on task 0  :           0.124 MB
  | Peak value for overall tracked memory usage on task 0     :           0.661 MB after allocating gradient_basis_wave
  | Largest tracked array allocation on task 0 so far         :           0.403 MB  when allocating gradient_basis_wave
  Note:  These values currently only include a subset of arrays which are explicitly tracked.
  The "true" memory usage will be greater.
------------------------------------------------------------

------------------------------------------------------------
          Begin self-consistency iteration #    3

  Date     :  20180214, Time     :  152457.317
------------------------------------------------------------
  Evaluating new KS density.
  Integration grid: deviation in total charge (<rho> - N_e) =   8.881784E-15
  Pulay mixing of updated and previous charge densities.

  Evaluating partitioned Hartree potential by multipole expansion.
  | Analytical far-field extrapolation by fixed multipoles:
  | Hartree multipole sum: apparent total charge =  -0.561906E-06
  Summing up the Hartree potential.
  Time summed over all CPUs for potential: real work        0.890 s, elapsed        0.950 s
  | RMS charge density error from multipole expansion :   0.213269E-02

  Integrating Hamiltonian matrix: batch-based integration.
  Time summed over all CPUs for integration: real work        1.154 s, elapsed        1.209 s

  Updating Kohn-Sham eigenvalues, eigenvectors, occupation numbers, and Fermi level.
  Solving generalized eigenproblem
  Updating Kohn-Sham eigenvalues and eigenfunctions.
  Solving real generalised eigenvalue problem by standard LAPACK (fast)

  Obtaining occupation numbers and chemical potential using ELSI.
  | Chemical potential (Fermi level):    -5.41033050eV
  Highest occupied state (VBM) at     -7.58207434 eV
  | Occupation number:      2.00000000

  Lowest unoccupied state (CBM) at    -0.89972501 eV
  | Occupation number:      0.00000000

  Overall HOMO-LUMO gap:      6.68234933 eV.

  Total energy components:
  | Sum of eigenvalues            :         -32.13075516 Ha        -874.32233291 eV
  | XC energy correction          :          -7.86220092 Ha        -213.94137232 eV
  | XC potential correction       :          10.10602818 Ha         274.99901868 eV
  | Free-atom electrostatic energy:         -25.15126482 Ha        -684.40073759 eV
  | Hartree energy correction     :          -1.53476598 Ha         -41.76310713 eV
  | vdW energy correction         :           0.00000000 Ha           0.00000000 eV
  | Entropy correction            :           0.00000000 Ha           0.00000000 eV
  | ---------------------------
  | Total energy                  :         -56.57295869 Ha       -1539.42853126 eV
  | Total energy, T -> 0          :         -56.57295869 Ha       -1539.42853126 eV  <-- do not rely on this value for anything but (periodic) metals
  | Electronic free energy        :         -56.57295869 Ha       -1539.42853126 eV

  Derived energy quantities:
  | Kinetic energy                :          56.34524241 Ha        1533.23205596 eV
  | Electrostatic energy          :        -105.05600018 Ha       -2858.71921490 eV
  | Energy correction for multipole
  | error in Hartree potential    :          -0.00156893 Ha          -0.04269289 eV
  | Sum of eigenvalues per atom                           :        -218.58058323 eV
  | Total energy (T->0) per atom                          :        -384.85713282 eV  <-- do not rely on this value for anything but (periodic) metals
  | Electronic free energy per atom                       :        -384.85713282 eV

  Self-consistency convergence accuracy:
  | Change of charge density      :  0.1385E+00
  | Change of sum of eigenvalues  : -0.3848E+01 eV
  | Change of total energy        : -0.4193E-02 eV

  End self-consistency iteration #     3       :  max(cpu_time)    wall_clock(cpu1)
  | Time for this iteration                    :        0.420 s           0.418 s
  | Charge density update                      :        0.132 s           0.129 s
  | Density mixing                             :        0.004 s           0.005 s
  | Hartree multipole update                   :        0.016 s           0.015 s
  | Hartree multipole summation                :        0.120 s           0.118 s
  | Integration                                :        0.152 s           0.148 s
  | Solution of K.-S. eqns.                    :        0.004 s           0.002 s
  | Total energy evaluation                    :        0.000 s           0.001 s

  Partial memory accounting:
  | Current value for overall tracked memory usage on task 0  :           0.124 MB
  | Peak value for overall tracked memory usage on task 0     :           0.661 MB after allocating gradient_basis_wave
  | Largest tracked array allocation on task 0 so far         :           0.403 MB  when allocating gradient_basis_wave
  Note:  These values currently only include a subset of arrays which are explicitly tracked.
  The "true" memory usage will be greater.
------------------------------------------------------------

------------------------------------------------------------
          Begin self-consistency iteration #    4

  Date     :  20180214, Time     :  152457.736
------------------------------------------------------------
  Evaluating new KS density.
  Integration grid: deviation in total charge (<rho> - N_e) =   3.552714E-15
  Pulay mixing of updated and previous charge densities.

  Evaluating partitioned Hartree potential by multipole expansion.
  | Analytical far-field extrapolation by fixed multipoles:
  | Hartree multipole sum: apparent total charge =  -0.203330E-06
  Summing up the Hartree potential.
  Time summed over all CPUs for potential: real work        0.890 s, elapsed        0.955 s
  | RMS charge density error from multipole expansion :   0.341455E-02

  Integrating Hamiltonian matrix: batch-based integration.
  Time summed over all CPUs for integration: real work        1.145 s, elapsed        1.217 s

  Updating Kohn-Sham eigenvalues, eigenvectors, occupation numbers, and Fermi level.
  Solving generalized eigenproblem
  Updating Kohn-Sham eigenvalues and eigenfunctions.
  Solving real generalised eigenvalue problem by standard LAPACK (fast)

  Obtaining occupation numbers and chemical potential using ELSI.
  | Chemical potential (Fermi level):    -5.00893502eV
  Highest occupied state (VBM) at     -6.55549525 eV
  | Occupation number:      2.00000000

  Lowest unoccupied state (CBM) at    -0.58868527 eV
  | Occupation number:      0.00000000

  Overall HOMO-LUMO gap:      5.96680998 eV.

  Total energy components:
  | Sum of eigenvalues            :         -31.74203585 Ha        -863.74474223 eV
  | XC energy correction          :          -7.92465894 Ha        -215.64094140 eV
  | XC potential correction       :          10.18663283 Ha         277.19238265 eV
  | Free-atom electrostatic energy:         -25.15126482 Ha        -684.40073759 eV
  | Hartree energy correction     :          -1.93461087 Ha         -52.64344023 eV
  | vdW energy correction         :           0.00000000 Ha           0.00000000 eV
  | Entropy correction            :           0.00000000 Ha           0.00000000 eV
  | ---------------------------
  | Total energy                  :         -56.56593764 Ha       -1539.23747879 eV
  | Total energy, T -> 0          :         -56.56593764 Ha       -1539.23747879 eV  <-- do not rely on this value for anything but (periodic) metals
  | Electronic free energy        :         -56.56593764 Ha       -1539.23747879 eV

  Derived energy quantities:
  | Kinetic energy                :          56.37236044 Ha        1533.96997522 eV
  | Electrostatic energy          :        -105.01363915 Ha       -2857.56651262 eV
  | Energy correction for multipole
  | error in Hartree potential    :          -0.00187783 Ha          -0.05109837 eV
  | Sum of eigenvalues per atom                           :        -215.93618556 eV
  | Total energy (T->0) per atom                          :        -384.80936970 eV  <-- do not rely on this value for anything but (periodic) metals
  | Electronic free energy per atom                       :        -384.80936970 eV

  Self-consistency convergence accuracy:
  | Change of charge density      :  0.9401E-01
  | Change of sum of eigenvalues  :  0.1058E+02 eV
  | Change of total energy        :  0.1911E+00 eV

  End self-consistency iteration #     4       :  max(cpu_time)    wall_clock(cpu1)
  | Time for this iteration                    :        0.424 s           0.423 s
  | Charge density update                      :        0.132 s           0.130 s
  | Density mixing                             :        0.008 s           0.006 s
  | Hartree multipole update                   :        0.016 s           0.016 s
  | Hartree multipole summation                :        0.120 s           0.118 s
  | Integration                                :        0.152 s           0.150 s
  | Solution of K.-S. eqns.                    :        0.004 s           0.002 s
  | Total energy evaluation                    :        0.000 s           0.001 s

  Partial memory accounting:
  | Current value for overall tracked memory usage on task 0  :           0.124 MB
  | Peak value for overall tracked memory usage on task 0     :           0.661 MB after allocating gradient_basis_wave
  | Largest tracked array allocation on task 0 so far         :           0.403 MB  when allocating gradient_basis_wave
  Note:  These values currently only include a subset of arrays which are explicitly tracked.
  The "true" memory usage will be greater.
------------------------------------------------------------

------------------------------------------------------------
          Begin self-consistency iteration #    5

  Date     :  20180214, Time     :  152458.160
------------------------------------------------------------
  Evaluating new KS density.
  Integration grid: deviation in total charge (<rho> - N_e) =  -5.329071E-15
  Pulay mixing of updated and previous charge densities.

  Evaluating partitioned Hartree potential by multipole expansion.
  | Analytical far-field extrapolation by fixed multipoles:
  | Hartree multipole sum: apparent total charge =  -0.253653E-06
  Summing up the Hartree potential.
  Time summed over all CPUs for potential: real work        0.891 s, elapsed        0.948 s
  | RMS charge density error from multipole expansion :   0.342356E-02

  Integrating Hamiltonian matrix: batch-based integration.
  Time summed over all CPUs for integration: real work        1.158 s, elapsed        1.209 s

  Updating Kohn-Sham eigenvalues, eigenvectors, occupation numbers, and Fermi level.
  Solving generalized eigenproblem
  Updating Kohn-Sham eigenvalues and eigenfunctions.
  Solving real generalised eigenvalue problem by standard LAPACK (fast)

  Obtaining occupation numbers and chemical potential using ELSI.
  | Chemical potential (Fermi level):    -4.97201198eV
  Highest occupied state (VBM) at     -6.44517008 eV
  | Occupation number:      2.00000000

  Lowest unoccupied state (CBM) at    -0.56177525 eV
  | Occupation number:      0.00000000

  Overall HOMO-LUMO gap:      5.88339483 eV.

  Total energy components:
  | Sum of eigenvalues            :         -31.70971915 Ha        -862.86536027 eV
  | XC energy correction          :          -7.92914517 Ha        -215.76301787 eV
  | XC potential correction       :          10.19254890 Ha         277.35336718 eV
  | Free-atom electrostatic energy:         -25.15126482 Ha        -684.40073759 eV
  | Hartree energy correction     :          -1.96809111 Ha         -53.55448406 eV
  | vdW energy correction         :           0.00000000 Ha           0.00000000 eV
  | Entropy correction            :           0.00000000 Ha           0.00000000 eV
  | ---------------------------
  | Total energy                  :         -56.56567135 Ha       -1539.23023261 eV
  | Total energy, T -> 0          :         -56.56567135 Ha       -1539.23023261 eV  <-- do not rely on this value for anything but (periodic) metals
  | Electronic free energy        :         -56.56567135 Ha       -1539.23023261 eV

  Derived energy quantities:
  | Kinetic energy                :          56.36791079 Ha        1533.84889393 eV
  | Electrostatic energy          :        -105.00443697 Ha       -2857.31610866 eV
  | Energy correction for multipole
  | error in Hartree potential    :          -0.00189624 Ha          -0.05159931 eV
  | Sum of eigenvalues per atom                           :        -215.71634007 eV
  | Total energy (T->0) per atom                          :        -384.80755815 eV  <-- do not rely on this value for anything but (periodic) metals
  | Electronic free energy per atom                       :        -384.80755815 eV

  Self-consistency convergence accuracy:
  | Change of charge density      :  0.2151E-01
  | Change of sum of eigenvalues  :  0.8794E+00 eV
  | Change of total energy        :  0.7246E-02 eV

  End self-consistency iteration #     5       :  max(cpu_time)    wall_clock(cpu1)
  | Time for this iteration                    :        0.424 s           0.423 s
  | Charge density update                      :        0.132 s           0.128 s
  | Density mixing                             :        0.008 s           0.008 s
  | Hartree multipole update                   :        0.016 s           0.017 s
  | Hartree multipole summation                :        0.120 s           0.117 s
  | Integration                                :        0.148 s           0.150 s
  | Solution of K.-S. eqns.                    :        0.004 s           0.003 s
  | Total energy evaluation                    :        0.000 s           0.000 s

  Partial memory accounting:
  | Current value for overall tracked memory usage on task 0  :           0.124 MB
  | Peak value for overall tracked memory usage on task 0     :           0.661 MB after allocating gradient_basis_wave
  | Largest tracked array allocation on task 0 so far         :           0.403 MB  when allocating gradient_basis_wave
  Note:  These values currently only include a subset of arrays which are explicitly tracked.
  The "true" memory usage will be greater.
------------------------------------------------------------

------------------------------------------------------------
          Begin self-consistency iteration #    6

  Date     :  20180214, Time     :  152458.583
------------------------------------------------------------
  Evaluating new KS density.
  Integration grid: deviation in total charge (<rho> - N_e) =   3.552714E-15
  Pulay mixing of updated and previous charge densities.

  Evaluating partitioned Hartree potential by multipole expansion.
  | Analytical far-field extrapolation by fixed multipoles:
  | Hartree multipole sum: apparent total charge =  -0.279795E-06
  Summing up the Hartree potential.
  Time summed over all CPUs for potential: real work        0.889 s, elapsed        0.963 s
  | RMS charge density error from multipole expansion :   0.350682E-02

  Integrating Hamiltonian matrix: batch-based integration.
  Time summed over all CPUs for integration: real work        1.162 s, elapsed        1.237 s

  Updating Kohn-Sham eigenvalues, eigenvectors, occupation numbers, and Fermi level.
  Solving generalized eigenproblem
  Updating Kohn-Sham eigenvalues and eigenfunctions.
  Solving real generalised eigenvalue problem by standard LAPACK (fast)

  Obtaining occupation numbers and chemical potential using ELSI.
  | Chemical potential (Fermi level):    -4.90966204eV
  Highest occupied state (VBM) at     -6.27938189 eV
  | Occupation number:      2.00000000

  Lowest unoccupied state (CBM) at    -0.51258091 eV
  | Occupation number:      0.00000000

  Overall HOMO-LUMO gap:      5.76680098 eV.

  Total energy components:
  | Sum of eigenvalues            :         -31.65717066 Ha        -861.43544302 eV
  | XC energy correction          :          -7.93727064 Ha        -215.98412317 eV
  | XC potential correction       :          10.20317689 Ha         277.64256943 eV
  | Free-atom electrostatic energy:         -25.15126482 Ha        -684.40073759 eV
  | Hartree energy correction     :          -2.02291544 Ha         -55.04632978 eV
  | vdW energy correction         :           0.00000000 Ha           0.00000000 eV
  | Entropy correction            :           0.00000000 Ha           0.00000000 eV
  | ---------------------------
  | Total energy                  :         -56.56544466 Ha       -1539.22406414 eV
  | Total energy, T -> 0          :         -56.56544466 Ha       -1539.22406414 eV  <-- do not rely on this value for anything but (periodic) metals
  | Electronic free energy        :         -56.56544466 Ha       -1539.22406414 eV

  Derived energy quantities:
  | Kinetic energy                :          56.36179924 Ha        1533.68259034 eV
  | Electrostatic energy          :        -104.98997327 Ha       -2856.92253131 eV
  | Energy correction for multipole
  | error in Hartree potential    :          -0.00192576 Ha          -0.05240255 eV
  | Sum of eigenvalues per atom                           :        -215.35886076 eV
  | Total energy (T->0) per atom                          :        -384.80601604 eV  <-- do not rely on this value for anything but (periodic) metals
  | Electronic free energy per atom                       :        -384.80601604 eV

  Self-consistency convergence accuracy:
  | Change of charge density      :  0.1545E-01
  | Change of sum of eigenvalues  :  0.1430E+01 eV
  | Change of total energy        :  0.6168E-02 eV

  End self-consistency iteration #     6       :  max(cpu_time)    wall_clock(cpu1)
  | Time for this iteration                    :        0.440 s           0.440 s
  | Charge density update                      :        0.140 s           0.139 s
  | Density mixing                             :        0.012 s           0.011 s
  | Hartree multipole update                   :        0.020 s           0.016 s
  | Hartree multipole summation                :        0.120 s           0.119 s
  | Integration                                :        0.152 s           0.152 s
  | Solution of K.-S. eqns.                    :        0.004 s           0.002 s
  | Total energy evaluation                    :        0.004 s           0.001 s

  Partial memory accounting:
  | Current value for overall tracked memory usage on task 0  :           0.124 MB
  | Peak value for overall tracked memory usage on task 0     :           0.661 MB after allocating gradient_basis_wave
  | Largest tracked array allocation on task 0 so far         :           0.403 MB  when allocating gradient_basis_wave
  Note:  These values currently only include a subset of arrays which are explicitly tracked.
  The "true" memory usage will be greater.
------------------------------------------------------------

------------------------------------------------------------
          Begin self-consistency iteration #    7

  Date     :  20180214, Time     :  152459.024
------------------------------------------------------------
  Evaluating new KS density.
  Integration grid: deviation in total charge (<rho> - N_e) =   8.881784E-15
  Pulay mixing of updated and previous charge densities.

  Evaluating partitioned Hartree potential by multipole expansion.
  | Analytical far-field extrapolation by fixed multipoles:
  | Hartree multipole sum: apparent total charge =  -0.300002E-06
  Summing up the Hartree potential.
  Time summed over all CPUs for potential: real work        0.897 s, elapsed        0.941 s
  | RMS charge density error from multipole expansion :   0.354876E-02

  Integrating Hamiltonian matrix: batch-based integration.
  Time summed over all CPUs for integration: real work        1.152 s, elapsed        1.253 s

  Updating Kohn-Sham eigenvalues, eigenvectors, occupation numbers, and Fermi level.
  Solving generalized eigenproblem
  Updating Kohn-Sham eigenvalues and eigenfunctions.
  Solving real generalised eigenvalue problem by standard LAPACK (fast)

  Obtaining occupation numbers and chemical potential using ELSI.
  | Chemical potential (Fermi level):    -4.86611331eV
  Highest occupied state (VBM) at     -6.16776775 eV
  | Occupation number:      2.00000000

  Lowest unoccupied state (CBM) at    -0.47551514 eV
  | Occupation number:      0.00000000

  Overall HOMO-LUMO gap:      5.69225261 eV.

  Total energy components:
  | Sum of eigenvalues            :         -31.61884786 Ha        -860.39262656 eV
  | XC energy correction          :          -7.94327796 Ha        -216.14759074 eV
  | XC potential correction       :          10.21104139 Ha         277.85657329 eV
  | Free-atom electrostatic energy:         -25.15126482 Ha        -684.40073759 eV
  | Hartree energy correction     :          -2.06305570 Ha         -56.13860198 eV
  | vdW energy correction         :           0.00000000 Ha           0.00000000 eV
  | Entropy correction            :           0.00000000 Ha           0.00000000 eV
  | ---------------------------
  | Total energy                  :         -56.56540495 Ha       -1539.22298357 eV
  | Total energy, T -> 0          :         -56.56540495 Ha       -1539.22298357 eV  <-- do not rely on this value for anything but (periodic) metals
  | Electronic free energy        :         -56.56540495 Ha       -1539.22298357 eV

  Derived energy quantities:
  | Kinetic energy                :          56.36393760 Ha        1533.74077809 eV
  | Electrostatic energy          :        -104.98606460 Ha       -2856.81617092 eV
  | Energy correction for multipole
  | error in Hartree potential    :          -0.00194276 Ha          -0.05286529 eV
  | Sum of eigenvalues per atom                           :        -215.09815664 eV
  | Total energy (T->0) per atom                          :        -384.80574589 eV  <-- do not rely on this value for anything but (periodic) metals
  | Electronic free energy per atom                       :        -384.80574589 eV

  Self-consistency convergence accuracy:
  | Change of charge density      :  0.6182E-02
  | Change of sum of eigenvalues  :  0.1043E+01 eV
  | Change of total energy        :  0.1081E-02 eV

  End self-consistency iteration #     7       :  max(cpu_time)    wall_clock(cpu1)
  | Time for this iteration                    :        0.432 s           0.431 s
  | Charge density update                      :        0.128 s           0.127 s
  | Density mixing                             :        0.012 s           0.013 s
  | Hartree multipole update                   :        0.020 s           0.018 s
  | Hartree multipole summation                :        0.116 s           0.116 s
  | Integration                                :        0.156 s           0.155 s
  | Solution of K.-S. eqns.                    :        0.004 s           0.001 s
  | Total energy evaluation                    :        0.000 s           0.000 s

  Partial memory accounting:
  | Current value for overall tracked memory usage on task 0  :           0.124 MB
  | Peak value for overall tracked memory usage on task 0     :           0.661 MB after allocating gradient_basis_wave
  | Largest tracked array allocation on task 0 so far         :           0.403 MB  when allocating gradient_basis_wave
  Note:  These values currently only include a subset of arrays which are explicitly tracked.
  The "true" memory usage will be greater.
------------------------------------------------------------

------------------------------------------------------------
          Begin self-consistency iteration #    8

  Date     :  20180214, Time     :  152459.456
------------------------------------------------------------
  Evaluating new KS density.
  Integration grid: deviation in total charge (<rho> - N_e) =   3.552714E-15
  Pulay mixing of updated and previous charge densities.

  Evaluating partitioned Hartree potential by multipole expansion.
  | Analytical far-field extrapolation by fixed multipoles:
  | Hartree multipole sum: apparent total charge =  -0.295243E-06
  Summing up the Hartree potential.
  Time summed over all CPUs for potential: real work        0.906 s, elapsed        1.013 s
  | RMS charge density error from multipole expansion :   0.354786E-02

  Integrating Hamiltonian matrix: batch-based integration.
  Time summed over all CPUs for integration: real work        1.171 s, elapsed        1.242 s

  Updating Kohn-Sham eigenvalues, eigenvectors, occupation numbers, and Fermi level.
  Solving generalized eigenproblem
  Updating Kohn-Sham eigenvalues and eigenfunctions.
  Solving real generalised eigenvalue problem by standard LAPACK (fast)

  Obtaining occupation numbers and chemical potential using ELSI.
  | Chemical potential (Fermi level):    -4.86886131eV
  Highest occupied state (VBM) at     -6.17480846 eV
  | Occupation number:      2.00000000

  Lowest unoccupied state (CBM) at    -0.47786120 eV
  | Occupation number:      0.00000000

  Overall HOMO-LUMO gap:      5.69694727 eV.

  Total energy components:
  | Sum of eigenvalues            :         -31.62077922 Ha        -860.44518141 eV
  | XC energy correction          :          -7.94304480 Ha        -216.14124603 eV
  | XC potential correction       :          10.21072904 Ha         277.84807393 eV
  | Free-atom electrostatic energy:         -25.15126482 Ha        -684.40073759 eV
  | Hartree energy correction     :          -2.06104482 Ha         -56.08388310 eV
  | vdW energy correction         :           0.00000000 Ha           0.00000000 eV
  | Entropy correction            :           0.00000000 Ha           0.00000000 eV
  | ---------------------------
  | Total energy                  :         -56.56540461 Ha       -1539.22297420 eV
  | Total energy, T -> 0          :         -56.56540461 Ha       -1539.22297420 eV  <-- do not rely on this value for anything but (periodic) metals
  | Electronic free energy        :         -56.56540461 Ha       -1539.22297420 eV

  Derived energy quantities:
  | Kinetic energy                :          56.36540519 Ha        1533.78071300 eV
  | Electrostatic energy          :        -104.98776500 Ha       -2856.86244116 eV
  | Energy correction for multipole
  | error in Hartree potential    :          -0.00194350 Ha          -0.05288528 eV
  | Sum of eigenvalues per atom                           :        -215.11129535 eV
  | Total energy (T->0) per atom                          :        -384.80574355 eV  <-- do not rely on this value for anything but (periodic) metals
  | Electronic free energy per atom                       :        -384.80574355 eV

  Self-consistency convergence accuracy:
  | Change of charge density      :  0.4912E-03
  | Change of sum of eigenvalues  : -0.5255E-01 eV
  | Change of total energy        :  0.9372E-05 eV

  End self-consistency iteration #     8       :  max(cpu_time)    wall_clock(cpu1)
  | Time for this iteration                    :        0.444 s           0.442 s
  | Charge density update                      :        0.132 s           0.129 s
  | Density mixing                             :        0.016 s           0.016 s
  | Hartree multipole update                   :        0.016 s           0.014 s
  | Hartree multipole summation                :        0.124 s           0.126 s
  | Integration                                :        0.152 s           0.152 s
  | Solution of K.-S. eqns.                    :        0.004 s           0.003 s
  | Total energy evaluation                    :        0.000 s           0.002 s

  Partial memory accounting:
  | Current value for overall tracked memory usage on task 0  :           0.124 MB
  | Peak value for overall tracked memory usage on task 0     :           0.661 MB after allocating gradient_basis_wave
  | Largest tracked array allocation on task 0 so far         :           0.403 MB  when allocating gradient_basis_wave
  Note:  These values currently only include a subset of arrays which are explicitly tracked.
  The "true" memory usage will be greater.
------------------------------------------------------------

------------------------------------------------------------
          Begin self-consistency iteration #    9

  Date     :  20180214, Time     :  152459.899
------------------------------------------------------------
  Evaluating new KS density.
  Integration grid: deviation in total charge (<rho> - N_e) =   5.329071E-15
  Pulay mixing of updated and previous charge densities.

  Evaluating partitioned Hartree potential by multipole expansion.
  | Analytical far-field extrapolation by fixed multipoles:
  | Hartree multipole sum: apparent total charge =  -0.293868E-06
  Summing up the Hartree potential.
  Time summed over all CPUs for potential: real work        0.908 s, elapsed        0.985 s
  | RMS charge density error from multipole expansion :   0.354872E-02

  Integrating Hamiltonian matrix: batch-based integration.
  Time summed over all CPUs for integration: real work        1.164 s, elapsed        1.242 s

  Updating Kohn-Sham eigenvalues, eigenvectors, occupation numbers, and Fermi level.
  Solving generalized eigenproblem
  Updating Kohn-Sham eigenvalues and eigenfunctions.
  Solving real generalised eigenvalue problem by standard LAPACK (fast)

  Obtaining occupation numbers and chemical potential using ELSI.
  | Chemical potential (Fermi level):    -4.86910695eV
  Highest occupied state (VBM) at     -6.17554035 eV
  | Occupation number:      2.00000000

  Lowest unoccupied state (CBM) at    -0.47796315 eV
  | Occupation number:      0.00000000

  Overall HOMO-LUMO gap:      5.69757720 eV.

  Total energy components:
  | Sum of eigenvalues            :         -31.62097777 Ha        -860.45058433 eV
  | XC energy correction          :          -7.94305049 Ha        -216.14140094 eV
  | XC potential correction       :          10.21073395 Ha         277.84820761 eV
  | Free-atom electrostatic energy:         -25.15126482 Ha        -684.40073759 eV
  | Hartree energy correction     :          -2.06084547 Ha         -56.07845845 eV
  | vdW energy correction         :           0.00000000 Ha           0.00000000 eV
  | Entropy correction            :           0.00000000 Ha           0.00000000 eV
  | ---------------------------
  | Total energy                  :         -56.56540459 Ha       -1539.22297371 eV
  | Total energy, T -> 0          :         -56.56540459 Ha       -1539.22297371 eV  <-- do not rely on this value for anything but (periodic) metals
  | Electronic free energy        :         -56.56540459 Ha       -1539.22297371 eV

  Derived energy quantities:
  | Kinetic energy                :          56.36560570 Ha        1533.78616917 eV
  | Electrostatic energy          :        -104.98795980 Ha       -2856.86774193 eV
  | Energy correction for multipole
  | error in Hartree potential    :          -0.00194365 Ha          -0.05288933 eV
  | Sum of eigenvalues per atom                           :        -215.11264608 eV
  | Total energy (T->0) per atom                          :        -384.80574343 eV  <-- do not rely on this value for anything but (periodic) metals
  | Electronic free energy per atom                       :        -384.80574343 eV

  Self-consistency convergence accuracy:
  | Change of charge density      :  0.8724E-04
  | Change of sum of eigenvalues  : -0.5403E-02 eV
  | Change of total energy        :  0.4936E-06 eV

  End self-consistency iteration #     9       :  max(cpu_time)    wall_clock(cpu1)
  | Time for this iteration                    :        0.436 s           0.435 s
  | Charge density update                      :        0.128 s           0.127 s
  | Density mixing                             :        0.016 s           0.016 s
  | Hartree multipole update                   :        0.016 s           0.015 s
  | Hartree multipole summation                :        0.124 s           0.122 s
  | Integration                                :        0.152 s           0.152 s
  | Solution of K.-S. eqns.                    :        0.004 s           0.002 s
  | Total energy evaluation                    :        0.000 s           0.001 s

  Partial memory accounting:
  | Current value for overall tracked memory usage on task 0  :           0.124 MB
  | Peak value for overall tracked memory usage on task 0     :           0.661 MB after allocating gradient_basis_wave
  | Largest tracked array allocation on task 0 so far         :           0.403 MB  when allocating gradient_basis_wave
  Note:  These values currently only include a subset of arrays which are explicitly tracked.
  The "true" memory usage will be greater.
------------------------------------------------------------

------------------------------------------------------------
          Begin self-consistency iteration #   10

  Date     :  20180214, Time     :  152500.335
------------------------------------------------------------
  Evaluating new KS density.
  Integration grid: deviation in total charge (<rho> - N_e) =  -3.552714E-15
  Pulay mixing of updated and previous charge densities.

  Evaluating partitioned Hartree potential by multipole expansion.
  | Analytical far-field extrapolation by fixed multipoles:
  | Hartree multipole sum: apparent total charge =  -0.294100E-06
  Summing up the Hartree potential.
  Time summed over all CPUs for potential: real work        0.891 s, elapsed        0.928 s
  | RMS charge density error from multipole expansion :   0.354870E-02

  Integrating Hamiltonian matrix: batch-based integration.
  Time summed over all CPUs for integration: real work        1.173 s, elapsed        1.308 s

  Updating Kohn-Sham eigenvalues, eigenvectors, occupation numbers, and Fermi level.
  Solving generalized eigenproblem
  Updating Kohn-Sham eigenvalues and eigenfunctions.
  Solving real generalised eigenvalue problem by standard LAPACK (fast)

  Obtaining occupation numbers and chemical potential using ELSI.
  | Chemical potential (Fermi level):    -4.86904310eV
  Highest occupied state (VBM) at     -6.17521488 eV
  | Occupation number:      2.00000000

  Lowest unoccupied state (CBM) at    -0.47795681 eV
  | Occupation number:      0.00000000

  Overall HOMO-LUMO gap:      5.69725807 eV.

  Total energy components:
  | Sum of eigenvalues            :         -31.62087317 Ha        -860.44773819 eV
  | XC energy correction          :          -7.94306093 Ha        -216.14168519 eV
  | XC potential correction       :          10.21074787 Ha         277.84858631 eV
  | Free-atom electrostatic energy:         -25.15126482 Ha        -684.40073759 eV
  | Hartree energy correction     :          -2.06095354 Ha         -56.08139910 eV
  | vdW energy correction         :           0.00000000 Ha           0.00000000 eV
  | Entropy correction            :           0.00000000 Ha           0.00000000 eV
  | ---------------------------
  | Total energy                  :         -56.56540459 Ha       -1539.22297376 eV
  | Total energy, T -> 0          :         -56.56540459 Ha       -1539.22297376 eV  <-- do not rely on this value for anything but (periodic) metals
  | Electronic free energy        :         -56.56540459 Ha       -1539.22297376 eV

  Derived energy quantities:
  | Kinetic energy                :          56.36559529 Ha        1533.78588614 eV
[...]
  | Electronic free energy        :         -56.56540459 Ha       -1539.22297375 eV

  Derived energy quantities:
  | Kinetic energy                :          56.36558519 Ha        1533.78561104 eV
  | Electrostatic energy          :        -104.98792788 Ha       -2856.86687341 eV
  | Energy correction for multipole
  | error in Hartree potential    :          -0.00194382 Ha          -0.05289403 eV
  | Sum of eigenvalues per atom                           :        -215.11193741 eV
  | Total energy (T->0) per atom                          :        -384.80574344 eV  <-- do not rely on this value for anything but (periodic) metals
  | Electronic free energy per atom                       :        -384.80574344 eV

  atomic forces [eV/Ang]:
  -----------------------
  atom #    1
   Hellmann-Feynman              :  0.117705E-10  0.170071E-04  0.114983E+02
   Ionic forces                  :  0.000000E+00  0.000000E+00  0.000000E+00
   Multipole                     :  0.373092E-12  0.967735E-04 -0.255849E-02
   Pulay + GGA                   : -0.696498E-12 -0.252176E-03 -0.115008E+02
   Van der Waals                 :  0.000000E+00  0.000000E+00  0.000000E+00
   ----------------------------------------------------------------
   Total forces(   1)            :  0.114471E-10 -0.138395E-03 -0.505729E-02
  atom #    2
   Hellmann-Feynman              : -0.538049E-01  0.309649E-01  0.451222E-01
   Ionic forces                  :  0.000000E+00  0.000000E+00  0.000000E+00
   Multipole                     : -0.453086E-02  0.261370E-02  0.310112E-03
   Pulay + GGA                   :  0.550558E-01 -0.317897E-01 -0.452103E-01
   Van der Waals                 :  0.000000E+00  0.000000E+00  0.000000E+00
   ----------------------------------------------------------------
   Total forces(   2)            : -0.327992E-02  0.178890E-02  0.222074E-03
  atom #    3
   Hellmann-Feynman              :  0.538049E-01  0.309649E-01  0.451222E-01
   Ionic forces                  :  0.000000E+00  0.000000E+00  0.000000E+00
   Multipole                     :  0.453086E-02  0.261370E-02  0.310112E-03
   Pulay + GGA                   : -0.550558E-01 -0.317897E-01 -0.452103E-01
   Van der Waals                 :  0.000000E+00  0.000000E+00  0.000000E+00
   ----------------------------------------------------------------
   Total forces(   3)            :  0.327992E-02  0.178890E-02  0.222074E-03
  atom #    4
   Hellmann-Feynman              : -0.177113E-11 -0.622396E-01  0.452458E-01
   Ionic forces                  :  0.000000E+00  0.000000E+00  0.000000E+00
   Multipole                     : -0.313298E-13 -0.523168E-02  0.315476E-03
   Pulay + GGA                   :  0.128118E-13  0.635726E-01 -0.452057E-01
   Van der Waals                 :  0.000000E+00  0.000000E+00  0.000000E+00
   ----------------------------------------------------------------
   Total forces(   4)            : -0.178964E-11 -0.389859E-02  0.355594E-03


  Self-consistency convergence accuracy:
  | Change of charge density      :  0.1356E-05
  | Change of sum of eigenvalues  :  0.1121E-03 eV
  | Change of total energy        : -0.2962E-08 eV
  | Change of forces              :  0.5748E+01 eV/A

  Writing Kohn-Sham eigenvalues.

  State    Occupation    Eigenvalue [Ha]    Eigenvalue [eV]
      1       2.00000         -13.982569         -380.48507
      2       2.00000          -0.776352          -21.12561
      3       2.00000          -0.412293          -11.21906
      4       2.00000          -0.412288          -11.21893
      5       2.00000          -0.226935           -6.17521
      6       0.00000          -0.017564           -0.47795
      7       0.00000           0.043480            1.18314
      8       0.00000           0.043480            1.18315
      9       0.00000           0.140576            3.82526
     10       0.00000           0.140579            3.82535
     11       0.00000           0.164822            4.48504
     12       0.00000           0.187169            5.09313
     13       0.00000           0.266345            7.24761

  Highest occupied state (VBM) at     -6.17521221 eV
  | Occupation number:      2.00000000

  Lowest unoccupied state (CBM) at    -0.47794823 eV
  | Occupation number:      0.00000000

  Overall HOMO-LUMO gap:      5.69726398 eV.

  Self-consistency cycle converged.

  End self-consistency iteration #    12       :  max(cpu_time)    wall_clock(cpu1)
  | Time for this iteration                    :        1.220 s           1.222 s
  | Charge density & force component update    :        0.636 s           0.635 s
  | Density mixing                             :        0.016 s           0.016 s
  | Hartree multipole update                   :        0.016 s           0.016 s
  | Hartree multipole summation                :        0.400 s           0.399 s
  | Integration                                :        0.152 s           0.151 s
  | Solution of K.-S. eqns.                    :        0.004 s           0.002 s
  | Total energy evaluation                    :        0.000 s           0.002 s

  Partial memory accounting:
  | Current value for overall tracked memory usage on task 0  :           0.124 MB
  | Peak value for overall tracked memory usage on task 0     :           1.602 MB after allocating hessian_basis_wave
  | Largest tracked array allocation on task 0 so far         :           0.806 MB  when allocating hessian_basis_wave
  Note:  These values currently only include a subset of arrays which are explicitly tracked.
  The "true" memory usage will be greater.
------------------------------------------------------------
  Obtaining max. number of non-zero basis functions in each batch .
  Evaluating KS electron density on previously omitted grid points.
  Evaluating non-empirical van der Waals correction (Tkatchenko/Scheffler 2009).
  Performing Hirshfeld analysis of fragment charges and moments.
  ----------------------------------------------------------------------
  | Atom     1: N
  |   Hirshfeld charge        :     -0.29229163
  |   Free atom volume        :     29.90025371
  |   Hirshfeld volume        :     25.66755636
  |   Hirshfeld dipole vector :     -0.00000000      -0.00000067      -0.08705709
  |   Hirshfeld dipole moment :      0.08705709
  |   Hirshfeld second moments:      0.11322281       0.00000000      -0.00000000
  |                                  0.00000000       0.11322443       0.00000015
  |                                 -0.00000000       0.00000015      -0.04724994
  ----------------------------------------------------------------------
  | Atom     2: H
  |   Hirshfeld charge        :      0.09743359
  |   Free atom volume        :     10.31539447
  |   Hirshfeld volume        :      6.24574483
  |   Hirshfeld dipole vector :      0.08962579      -0.05174332      -0.03832224
  |   Hirshfeld dipole moment :      0.11035737
  |   Hirshfeld second moments:      0.11690752       0.01004587       0.00554088
  |                                  0.01004587       0.12850645      -0.00319839
  |                                  0.00554088      -0.00319839       0.08197889
  ----------------------------------------------------------------------
  | Atom     3: H
  |   Hirshfeld charge        :      0.09743359
  |   Free atom volume        :     10.31539447
  |   Hirshfeld volume        :      6.24574483
  |   Hirshfeld dipole vector :     -0.08962579      -0.05174332      -0.03832224
  |   Hirshfeld dipole moment :      0.11035737
  |   Hirshfeld second moments:      0.11690752      -0.01004587      -0.00554088
  |                                 -0.01004587       0.12850645      -0.00319839
  |                                 -0.00554088      -0.00319839       0.08197889
  ----------------------------------------------------------------------
  | Atom     4: H
  |   Hirshfeld charge        :      0.09742837
  |   Free atom volume        :     10.31539447
  |   Hirshfeld volume        :      6.24581139
  |   Hirshfeld dipole vector :      0.00000000       0.10349407      -0.03832427
  |   Hirshfeld dipole moment :      0.11036201
  |   Hirshfeld second moments:      0.13430635       0.00000000       0.00000000
  |                                  0.00000000       0.11110106       0.00639926
  |                                  0.00000000       0.00639926       0.08197770
  ----------------------------------------------------------------------


  Total energy components:
  | Sum of eigenvalues            :         -31.62087360 Ha        -860.44774963 eV
  | XC energy correction          :          -7.94306190 Ha        -216.14171138 eV
  | XC potential correction       :          10.21074907 Ha         277.84861891 eV
  | Free-atom electrostatic energy:         -25.15126482 Ha        -684.40073759 eV
  | Hartree energy correction     :          -2.06095335 Ha         -56.08139405 eV
  | vdW energy correction         :          -0.00000560 Ha          -0.00015234 eV
  | Entropy correction            :           0.00000000 Ha           0.00000000 eV
  | ---------------------------
  | Total energy                  :         -56.56541019 Ha       -1539.22312609 eV
  | Total energy, T -> 0          :         -56.56541019 Ha       -1539.22312609 eV  <-- do not rely on this value for anything but (periodic) metals
  | Electronic free energy        :         -56.56541019 Ha       -1539.22312609 eV

  Derived energy quantities:
  | Kinetic energy                :          56.36558519 Ha        1533.78561104 eV
  | Electrostatic energy          :        -104.98792788 Ha       -2856.86687341 eV
  | Energy correction for multipole
  | error in Hartree potential    :          -0.00194382 Ha          -0.05289403 eV
  | Sum of eigenvalues per atom                           :        -215.11193741 eV
  | Total energy (T->0) per atom                          :        -384.80578152 eV  <-- do not rely on this value for anything but (periodic) metals
  | Electronic free energy per atom                       :        -384.80578152 eV

  atomic forces [eV/Ang]:
  -----------------------
  atom #    1
   Hellmann-Feynman              :  0.117705E-10  0.170071E-04  0.114983E+02
   Ionic forces                  :  0.000000E+00  0.000000E+00  0.000000E+00
   Multipole                     :  0.373092E-12  0.967735E-04 -0.255849E-02
   Pulay + GGA                   : -0.696498E-12 -0.252176E-03 -0.115008E+02
   Van der Waals                 : -0.132915E-16 -0.398467E-09  0.101316E-04
   ----------------------------------------------------------------
   Total forces(   1)            :  0.114471E-10 -0.138396E-03 -0.504716E-02
  atom #    2
   Hellmann-Feynman              : -0.538049E-01  0.309649E-01  0.451222E-01
   Ionic forces                  :  0.000000E+00  0.000000E+00  0.000000E+00
   Multipole                     : -0.453086E-02  0.261370E-02  0.310112E-03
   Pulay + GGA                   :  0.550558E-01 -0.317897E-01 -0.452103E-01
   Van der Waals                 :  0.261125E-03 -0.150752E-03 -0.337707E-05
   ----------------------------------------------------------------
   Total forces(   2)            : -0.301880E-02  0.163815E-02  0.218697E-03
  atom #    3
   Hellmann-Feynman              :  0.538049E-01  0.309649E-01  0.451222E-01
   Ionic forces                  :  0.000000E+00  0.000000E+00  0.000000E+00
   Multipole                     :  0.453086E-02  0.261370E-02  0.310112E-03
   Pulay + GGA                   : -0.550558E-01 -0.317897E-01 -0.452103E-01
   Van der Waals                 : -0.261125E-03 -0.150752E-03 -0.337707E-05
   ----------------------------------------------------------------
   Total forces(   3)            :  0.301880E-02  0.163815E-02  0.218697E-03
  atom #    4
   Hellmann-Feynman              : -0.177113E-11 -0.622396E-01  0.452458E-01
   Ionic forces                  :  0.000000E+00  0.000000E+00  0.000000E+00
   Multipole                     : -0.313298E-13 -0.523168E-02  0.315476E-03
   Pulay + GGA                   :  0.128118E-13  0.635726E-01 -0.452057E-01
   Van der Waals                 :  0.905315E-16  0.301504E-03 -0.337750E-05
   ----------------------------------------------------------------
   Total forces(   4)            : -0.178955E-11 -0.359709E-02  0.352216E-03

  Timings for VdW correction (Tkatchenko-Scheffler 2009 or later):
  | CPU time:        0.028 s, Wall clock time:        0.029 s.
  Removing unitary transformations (pure translations, rotations) from forces on atoms.
  Atomic forces before filtering:
  | Net force on center of mass :   0.244850E-11 -0.459190E-03 -0.425755E-02 eV/A
  | Net torque on center of mass:   0.135224E-03  0.689703E-12  0.127930E-13 eV
  Atomic forces after filtering:
  | Net force on center of mass :  -0.923217E-19  0.000000E+00 -0.696899E-18 eV/A
  | Net torque on center of mass:  -0.184392E-18 -0.280441E-18 -0.655548E-18 eV

  Energy and forces in a compact form:
  | Total energy uncorrected      :         -0.153922312609043E+04 eV
  | Total energy corrected        :         -0.153922312609043E+04 eV  <-- do not rely on this value for anything but (periodic) metals
  | Electronic free energy        :         -0.153922312609043E+04 eV
  Total atomic forces (unitary forces cleaned) [eV/Ang]:
  |   1          0.106956060971692E-10          0.372684193537942E-05         -0.398277155468680E-02
  |   2         -0.301879919660602E-02          0.174383531146171E-02          0.132708742335031E-02
  |   3          0.301879918826112E-02          0.174383530935827E-02          0.132708741823824E-02
  |   4         -0.235070705976405E-11         -0.349139746275536E-02          0.132859671309826E-02

  ------------------------------------ 
  Start decomposition of the XC Energy 
  ------------------------------------ 
  X and C from original XC functional choice 
  Hartree-Fock Energy :          0.000000000 Ha              0.000000000 eV
  X Energy            :         -7.629481997 Ha           -207.608768148 eV
  C Energy            :         -0.313579900 Ha             -8.532943234 eV
  Total XC Energy     :         -7.943061897 Ha           -216.141711381 eV
  ------------------------------------ 
  LDA X and C from self-consistent density 
  X Energy LDA        :         -6.907533028 Ha           -187.963537183 eV
  C Energy LDA        :         -0.622781934 Ha            -16.946758655 eV
  ------------------------------------ 
  End decomposition of the XC Energy 
  ------------------------------------ 

------------------------------------------------------------

------------------------------------------------------------------------------
  Final output of selected total energy values:

  The following output summarizes some interesting total energy values
  at the end of a run (AFTER all relaxation, molecular dynamics, etc.).

  | Total energy of the DFT / Hartree-Fock s.c.f. calculation      :          -1539.223126090 eV
  | Final zero-broadening corrected energy (caution - metals only) :          -1539.223126090 eV
  | For reference only, the value of 1 Hartree used in FHI-aims is :             27.211384500 eV

  Before relying on these values, please be sure to understand exactly which
  total energy value is referred to by a given number. Different objects may
  all carry the same name 'total energy'. Definitions:

  Total energy of the DFT / Hartree-Fock s.c.f. calculation:
  | Note that this energy does not include ANY quantities calculated after the
  | s.c.f. cycle, in particular not ANY RPA, MP2, etc. many-body perturbation terms.

  Final zero-broadening corrected energy:
  | For metallic systems only, a broadening of the occupation numbers at the Fermi
  | level can be extrapolated back to zero broadening by an electron-gas inspired
  | formula. For all systems that are not real metals, this value can be
  | meaningless and should be avoided.

------------------------------------------------------------------------------
  Methods described in the following list of references were used in this FHI-aims run.
  If you publish the results, please make sure to cite these reference if they apply.
  FHI-aims is an academic code, and for our developers (often, Ph.D. students
  and postdocs), scientific credit in the community is essential.
  Thank you for helping us!

  For any use of FHI-aims, please cite:

    Volker Blum, Ralf Gehrke, Felix Hanke, Paula Havu, Ville Havu,
    Xinguo Ren, Karsten Reuter, and Matthias Scheffler
    'Ab initio molecular simulations with numeric atom-centered orbitals'
    Computer Physics Communications 180, 2175-2196 (2009)
    http://dx.doi.org/10.1016/j.cpc.2009.06.022


  For the real-space grid partitioning and parallelization used in this calculation, please cite:

    Ville Havu, Volker Blum, Paula Havu, and Matthias Scheffler,
    'Efficient O(N) integration for all-electron electronic structure calculation'
    'using numerically tabulated basis functions'
    Journal of Computational Physics 228, 8367-8379 (2009).
    http://dx.doi.org/10.1016/j.jcp.2009.08.008

  Of course, there are many other important community references, e.g., those cited in the
  above references. Our list is limited to references that describe implementations in the
  FHI-aims code. The reason is purely practical (length of this list) - please credit others as well.

------------------------------------------------------------
          Leaving FHI-aims.
          Date     :  20180214, Time     :  152502.487

          Computational steps:
          | Number of self-consistency cycles          :           12
          | Number of SCF (re)initializations          :            1

          Detailed time accounting                     :  max(cpu_time)    wall_clock(cpu1)
          | Total time                                 :        6.592 s           6.635 s
          | Preparation time                           :        0.232 s           0.241 s
          | Boundary condition initalization           :        0.000 s           0.000 s
          | Grid partitioning                          :        0.064 s           0.064 s
          | Preloading free-atom quantities on grid    :        0.020 s           0.020 s
          | Free-atom superposition energy             :        0.016 s           0.016 s
          | Total time for integrations                :        2.040 s           2.026 s
          | Total time for solution of K.-S. equations :        0.056 s           0.034 s
          | Total time for density & force components  :        2.092 s           2.069 s
          | Total time for mixing                      :        0.132 s           0.128 s
          | Total time for Hartree multipole update    :        0.200 s           0.189 s
          | Total time for Hartree multipole sum       :        1.720 s           1.712 s
          | Total time for total energy evaluation     :        0.004 s           0.011 s
          | Total time for scaled ZORA corrections     :        0.000 s           0.000 s
          | Total time for vdW correction              :        0.028 s           0.029 s

          Partial memory accounting:
          | Residual value for overall tracked memory usage across tasks :           0.000 MB (should be 0.000 MB)
          | Peak values for overall tracked memory usage (after allocating hessian_basis_wave):
          |   Minimum:        1.602 MB (on task 1)
          |   Maximum:        1.602 MB (on task 1)
          |   Average:        1.602 MB
          | Largest tracked array allocation (hessian_basis_wave):
          |   Minimum:        0.806 MB (on task 1)
          |   Maximum:        0.806 MB (on task 1)
          |   Average:        0.806 MB
          Note:  These values currently only include a subset of arrays which are explicitly tracked.
          The "true" memory usage will be greater.

          Have a nice day.
------------------------------------------------------------
