  MPI-parallelism will be employed.
------------------------------------------------------------
          Invoking FHI-aims ...
          Version 180101-
          Git rev. (modified): fa29f3a Merge branch master of fhiaims.rzberlin.mp[...]
          Compiled on 2018/01/19 at 14:47:46 on host theobook132.

          When using FHI-aims, please cite the following reference:

          Volker Blum, Ralf Gehrke, Felix Hanke, Paula Havu,
          Ville Havu, Xinguo Ren, Karsten Reuter, and Matthias Scheffler,
          'Ab Initio Molecular Simulations with Numeric Atom-Centered Orbitals',
          Computer Physics Communications 180, 2175-2196 (2009)

          For any questions about FHI-aims, please visit the aimsclub website
          with its forums and wiki. Contributions to both the forums and the
          wiki are warmly encouraged - they are for you, and everyone is welcome there.

------------------------------------------------------------



  Date     :  20180216, Time     :  134326.613
  Time zero on CPU 1             :   0.560000000000000E-01  s.
  Internal wall clock time zero  :           288020606.613  s.

  FHI-aims created a unique identifier for this run for later identification
  aims_uuid : 3E5E61B5-9FEA-49C0-A54F-7982917ACA61

  Using        8 parallel tasks.
  Task        0 on host theobook132 reporting.
  Task        1 on host theobook132 reporting.
  Task        2 on host theobook132 reporting.
  Task        3 on host theobook132 reporting.
  Task        4 on host theobook132 reporting.
  Task        5 on host theobook132 reporting.
  Task        6 on host theobook132 reporting.
  Task        7 on host theobook132 reporting.

  Performing system and environment tests:
  *** Environment variable OMP_NUM_THREADS is not set
  *** For performance reasons you might want to set it to 1
  | Stacksize not measured: no C compiler
  | Checking for scalapack...
  | No scalapack compiled in.

  Obtaining array dimensions for all initial allocations:
  
  -----------------------------------------------------------------------
  Parsing control.in (first pass over file, find array dimensions only).
  The contents of control.in will be repeated verbatim below
  unless switched off by setting 'verbatim_writeout .false.' .
  in the first line of control.in .
  -----------------------------------------------------------------------
  
  #########################################################################################
  #
  #  Volker Blum, FHI 2008 : Test run input file control.in for simple H2O
  #
  #########################################################################################
  #
  #  Physical model
  #
    xc                 pbe
    vdw_correction_hirshfeld
    spin               none
    relativistic       none
    charge             0.0
  #
  #  SCF convergence
  #
    occupation_type    gaussian 0.01
    mixer              pulay
      n_max_pulay        10
      charge_mix_param   0.5
    sc_accuracy_rho    1E-5
    sc_accuracy_eev    1E-3
    sc_accuracy_etot   1E-6
    sc_iter_limit      60
  #
  #  Eigenvalue solution
  #
   # KS_method	     scalapack_fast
   #   empty_states       3
   #   basis_threshold    1.e-5
  #
  #  Efficiency
  #
  #   communication_type shmem
  #
  #  Relaxation
  #
  #
   # init_hess          Lindh
  # create a better hesse matrix by lindhh-script.
  #  relax_geometry     trm 5.e-3
  # relax_geometry     trm 1.e-2
  #
  #  relax_geometry   bfgs 1.e-2
  #
  # Check below which parameters used!
  compute_forces .true.
  final_forces_cleaned .true.
  ################################################################################
  #
  #  FHI-aims code project
  #  VB, Fritz-Haber Institut, 2009
  #
  #  Suggested "light" defaults for H atom (to be pasted into control.in file)
  #  Be sure to double-check any results obtained with these settings for post-processing,
  #  e.g., with the "tight" defaults and larger basis sets.
  #
  ################################################################################
    species        H
  #     global species definitions
      nucleus             1
      mass                1.00794
  #
      l_hartree           4
  #
      cut_pot             3.5  1.5  1.0
      basis_dep_cutoff    1e-4
  #
      radial_base         24 5.0
      radial_multiplier   1
      angular_grids       specified
        division   0.2421   50
        division   0.3822  110
        division   0.4799  194
        division   0.5341  302
  #      division   0.5626  434
  #      division   0.5922  590
  #      division   0.6542  770
  #      division   0.6868 1202
  #      outer_grid  770
        outer_grid  302
  ################################################################################
  #
  #  Definition of "minimal" basis
  #
  ################################################################################
  #     valence basis states
      valence      1  s   1.
  #     ion occupancy
      ion_occ      1  s   0.5
  ################################################################################
  #
  #  Suggested additional basis functions. For production calculations,
  #  uncomment them one after another (the most important basis functions are
  #  listed first).
  #
  #  Basis constructed for dimers: 0.5 A, 0.7 A, 1.0 A, 1.5 A, 2.5 A
  #
  ################################################################################
  #  "First tier" - improvements: -1014.90 meV to -62.69 meV
       hydro 2 s 2.1
       hydro 2 p 3.5
  #  "Second tier" - improvements: -12.89 meV to -1.83 meV
  #     hydro 1 s 0.85
  #     hydro 2 p 3.7
  #     hydro 2 s 1.2
  #     hydro 3 d 7
  #  "Third tier" - improvements: -0.25 meV to -0.12 meV
  #     hydro 4 f 11.2
  #     hydro 3 p 4.8
  #     hydro 4 d 9
  #     hydro 3 s 3.2
  ################################################################################
  #
  #  FHI-aims code project
  #  VB, Fritz-Haber Institut, 2009
  #
  #  Suggested "light" defaults for C atom (to be pasted into control.in file)
  #  Be sure to double-check any results obtained with these settings for post-processing,
  #  e.g., with the "tight" defaults and larger basis sets.
  #
  ################################################################################
    species        C
  #     global species definitions
      nucleus             6
      mass                12.0107
  #
      l_hartree           4
  #
      cut_pot             3.5  1.5  1.0
      basis_dep_cutoff    1e-4
  #
      radial_base         34 5.0
      radial_multiplier   1
      angular_grids specified
        division   0.3326   50
        division   0.5710  110
        division   0.7727  194
        division   0.8772  302
  #      division   0.9334  434
  #      division   0.9625  590
  #      division   0.9924  770
  #      division   1.0230  974
  #      division   1.4589 1202
  #     outer_grid  974
       outer_grid 302
  ################################################################################
  #
  #  Definition of "minimal" basis
  #
  ################################################################################
  #     valence basis states
      valence      2  s   2.
      valence      2  p   2.
  #     ion occupancy
      ion_occ      2  s   1.
      ion_occ      2  p   1.
  ################################################################################
  #
  #  Suggested additional basis functions. For production calculations,
  #  uncomment them one after another (the most important basis functions are
  #  listed first).
  #
  #  Constructed for dimers: 1.0 A, 1.25 A, 1.5 A, 2.0 A, 3.0 A
  #
  ################################################################################
  #  "First tier" - improvements: -1214.57 meV to -155.61 meV
       hydro 2 p 1.7
       hydro 3 d 6
       hydro 2 s 4.9
  #  "Second tier" - improvements: -67.75 meV to -5.23 meV
  #     hydro 4 f 9.8
  #     hydro 3 p 5.2
  #     hydro 3 s 4.3
  #     hydro 5 g 14.4
  #     hydro 3 d 6.2
  #  "Third tier" - improvements: -2.43 meV to -0.60 meV
  #     hydro 2 p 5.6
  #     hydro 2 s 1.4
  #     hydro 3 d 4.9
  #     hydro 4 f 11.2
  #  "Fourth tier" - improvements: -0.39 meV to -0.18 meV
  #     hydro 2 p 2.1
  #     hydro 5 g 16.4
  #     hydro 4 d 13.2
  #     hydro 3 s 13.6
  #     hydro 4 f 17.6
  #  Further basis functions - improvements: -0.08 meV and below
  #     hydro 3 s 2
  #     hydro 3 p 6
  #     hydro 4 d 20
  ################################################################################
  #
  #  FHI-aims code project
  #  VB, Fritz-Haber Institut, 2009
  #
  #  Suggested "light" defaults for N atom (to be pasted into control.in file)
  #  Be sure to double-check any results obtained with these settings for post-processing,
  #  e.g., with the "tight" defaults and larger basis sets.
  #
  ################################################################################
    species        N
  #     global species definitions
      nucleus             7
      mass                14.0067
  #
      l_hartree           4
  #
      cut_pot             3.5  1.5  1.0
      basis_dep_cutoff    1e-4
  #
      radial_base         35 5.0
      radial_multiplier   1
      angular_grids       specified
        division   0.2599   50
        division   0.4601  110
        division   0.5885  194
        division   0.6503  302
  #      division   0.6939  434
  #      division   0.7396  590
  #      division   0.7632  770
  #      division   0.8122  974
  #      division   1.1604 1202
  #      outer_grid  974
        outer_grid  302
  ################################################################################
  #
  #  Definition of "minimal" basis
  #
  ################################################################################
  #     valence basis states
      valence      2  s   2.
      valence      2  p   3.
  #     ion occupancy
      ion_occ      2  s   1.
      ion_occ      2  p   2.
  ################################################################################
  #
  #  Suggested additional basis functions. For production calculations,
  #  uncomment them one after another (the most important basis functions are
  #  listed first).
  #
  #  Constructed for dimers: 1.0 A, 1.1 A, 1.5 A, 2.0 A, 3.0 A
  #
  ################################################################################
  #  "First tier" - improvements: -1193.42 meV to -220.60 meV
       hydro 2 p 1.8
       hydro 3 d 6.8
       hydro 3 s 5.8
  #  "Second tier" - improvements: -80.21 meV to -6.86 meV
  #     hydro 4 f 10.8
  #     hydro 3 p 5.8
  #     hydro 1 s 0.8
  #     hydro 5 g 16
  #     hydro 3 d 4.9
  #  "Third tier" - improvements: -4.29 meV to -0.53 meV
  #     hydro 3 s 16
  #     ionic 2 p auto
  #     hydro 3 d 6.6
  #     hydro 4 f 11.6
  #  "Fourth tier" - improvements: -0.75 meV to -0.25 meV
  #     hydro 2 p 4.5
  #     hydro 2 s 2.4
  #     hydro 5 g 14.4
  #     hydro 4 d 14.4
  #     hydro 4 f 16.8
  # Further basis functions - -0.21 meV and below
  #     hydro 3 p 14.8
  #     hydro 3 s 4.4
  #     hydro 3 d 19.6
  #     hydro 5 g 12.8
  ################################################################################
  #
  #  FHI-aims code project
  #  VB, Fritz-Haber Institut, 2009
  #
  #  Suggested "light" defaults for O atom (to be pasted into control.in file)
  #  Be sure to double-check any results obtained with these settings for post-processing,
  #  e.g., with the "tight" defaults and larger basis sets.
  #
  ################################################################################
    species        O
  #     global species definitions
      nucleus             8
      mass                15.9994
  #
      l_hartree           4
  #
      cut_pot             3.5  1.5  1.0
      basis_dep_cutoff    1e-4
  #
      radial_base         36 5.0
      radial_multiplier   1
       angular_grids specified
        division   0.2659   50
        division   0.4451  110
        division   0.6052  194
        division   0.7543  302
  #      division   0.8014  434
  #      division   0.8507  590
  #      division   0.8762  770
  #      division   0.9023  974
  #      division   1.2339 1202
  #      outer_grid 974
        outer_grid 302
  ################################################################################
  #
  #  Definition of "minimal" basis
  #
  ################################################################################
  #     valence basis states
      valence      2  s   2.
      valence      2  p   4.
  #     ion occupancy
      ion_occ      2  s   1.
      ion_occ      2  p   3.
  ################################################################################
  #
  #  Suggested additional basis functions. For production calculations,
  #  uncomment them one after another (the most important basis functions are
  #  listed first).
  #
  #  Constructed for dimers: 1.0 A, 1.208 A, 1.5 A, 2.0 A, 3.0 A
  #
  ################################################################################
  #  "First tier" - improvements: -699.05 meV to -159.38 meV
       hydro 2 p 1.8
       hydro 3 d 7.6
       hydro 3 s 6.4
  #  "Second tier" - improvements: -49.91 meV to -5.39 meV
  #     hydro 4 f 11.6
  #     hydro 3 p 6.2
  #     hydro 3 d 5.6
  #     hydro 5 g 17.6
  #     hydro 1 s 0.75
  #  "Third tier" - improvements: -2.83 meV to -0.50 meV
  #     ionic 2 p auto
  #     hydro 4 f 10.8
  #     hydro 4 d 4.7
  #     hydro 2 s 6.8
  #  "Fourth tier" - improvements: -0.40 meV to -0.12 meV
  #     hydro 3 p 5
  #     hydro 3 s 3.3
  #     hydro 5 g 15.6
  #     hydro 4 f 17.6
  #     hydro 4 d 14
  # Further basis functions - -0.08 meV and below
  #     hydro 3 s 2.1
  #     hydro 4 d 11.6
  #     hydro 3 p 16
  #     hydro 2 s 17.2
  ################################################################################
  #
  #  FHI-aims code project
  #  VB, Fritz-Haber Institut, 2009
  #
  #  Suggested "light" defaults for Na atom (to be pasted into control.in file)
  #  Be sure to double-check any results obtained with these settings for post-processing,
  #  e.g., with the "tight" defaults and larger basis sets.
  #
  ################################################################################
    species        Na
  #     global species definitions
      nucleus             11
      mass                22.98976928
  #
      l_hartree           4
  #
      cut_pot             4.0          1.5  1.0
      basis_dep_cutoff    1e-4
  #
      radial_base         40 5.5
      radial_multiplier   1
      angular_grids       specified
        division   0.5925  110
        division   0.7843  194
        division   1.0201  302
  #      division   1.1879  434
  #      division   1.3799  590
  #      division   1.4503  770
  #      division   7.0005  974
  #      outer_grid  974
        outer_grid  302
  ################################################################################
  #
  #  Definition of "minimal" basis
  #
  ################################################################################
  #     valence basis states
      valence      3  s   1.
      valence      2  p   6.
  #     ion occupancy
      ion_occ      2  s   2.
      ion_occ      2  p   6.
  ################################################################################
  #
  #  Suggested additional basis functions. For production calculations,
  #  uncomment them one after another (the most important basis functions are
  #  listed first).
  #
  #  Constructed for dimers: 2.0 A, 2.5 A, 3.0 A, 3.75 A, 4.5 A
  #
  ################################################################################
  #  "First tier" - improvements: -60.09 meV to -10.02 meV
       hydro 2 p 1.2
       hydro 3 s 1.8
       hydro 3 d 3.8
  #  "Second tier" - improvements: -2.94 meV to -1.27 meV
  #     hydro 4 p 3.1
  #     hydro 3 s 10
  #     hydro 4 f 6.2
  #     hydro 4 d 1.3
  #  "Third tier" - improvements: -0.83 meV to -0.07 meV
  #     hydro 3 d 7.8
  #     hydro 3 p 2.3
  #     hydro 5 g 9.6
  #     hydro 4 p 0.85
  #     hydro 5 f 1.8
  #     hydro 2 s 0.6
  #  Further basis functions that fell out of the optimization - noise level...
  #     hydro 5 g 0.1
  #     hydro 4 d 3.4
  #     hydro 4 s 0.1
  
  
  -----------------------------------------------------------------------
  Completed first pass over input file control.in .
  -----------------------------------------------------------------------
  
  
  -----------------------------------------------------------------------
  Parsing geometry.in (first pass over file, find array dimensions only).
  The contents of geometry.in will be repeated verbatim below
  unless switched off by setting 'verbatim_writeout .false.' .
  in the first line of geometry.in .
  -----------------------------------------------------------------------
  
  #=======================================#
  # iterations/iteration0077/aims-chain-node-0.27273/geometry.in
  #=======================================#
  atom -2.3915989458128157 -3.0796833806162227 -0.9240572573552936 C
  atom -1.9615752085288016 -1.6182159015209536 -0.8451207301379482 C
  atom -2.7254666992218133 -0.6697792303565567 -1.0437066130302717 O
  atom -2.0703779294966274 -3.6376717689295632 -0.0328956924137866 H
  atom -3.4797141687534952 -3.1330183210866278 -1.0171262157286742 H
  atom -1.9357006331779563 -3.5618362040603726 -1.8019086327996976 H
  atom -0.6415434909385078 -1.4734401277105014 -0.5275126502793370 N
  atom 0.1104511921455082 -0.2319123739863124 -0.5357909164273470 C
  atom -0.2771596503324059 0.7028578540584789 0.6238009657333927 C
  atom 1.5873516911424164 -0.7064973502555678 -0.5060413473101139 C
  atom 1.8660960580224462 -1.9129096041945626 -0.4926583640570145 O
  atom -0.0226716835634285 -2.2899821018622881 -0.5088026236788934 H
  atom -0.0665767340503733 0.3096590302606498 -1.4852984099763780 H
  atom -1.3450211153627465 0.9421161590399373 0.5369631768268219 H
  atom -0.1018095584063464 0.2181871897983215 1.5937005123806596 H
  atom 0.2843701778314307 1.6481418179954246 0.5937154785837766 H
  atom 2.5743408215838572 0.2242895105058213 -0.4865459523326078 N
  atom 3.9597840480756328 -0.2280223375380793 -0.4020359420596339 C
  atom 2.3613653298826525 1.2153558257437349 -0.5269344593651768 H
  atom 4.0890545501411051 -0.8671259949482762 0.4827298213152370 H
  atom 4.2310404140391267 -0.8285391589913793 -1.2822116744697705 H
  atom 4.6241261804499878 0.6384467670794731 -0.3306188858944489 H
  
  -----------------------------------------------------------------------
  Completed first pass over input file geometry.in .
  -----------------------------------------------------------------------
  

  Basic array size parameters:
  | Number of species                 :        5
  | Number of atoms                   :       22
  | Max. basis fn. angular momentum   :        2
  | Max. atomic/ionic basis occupied n:        3
  | Max. number of basis fn. types    :        2
  | Max. radial fns per species/type  :        4
  | Max. logarithmic grid size        :     1327
  | Max. radial integration grid size :       40
  | Max. angular integration grid size:      302
  | Max. angular grid division number :        8
  | Radial grid for Hartree potential :     1327
  | Number of spin channels           :        1

------------------------------------------------------------
          Reading file control.in.
------------------------------------------------------------
  XC: Using PBE gradient-corrected functionals.
  Spin treatment: No spin polarisation.
  Non-relativistic treatment of kinetic energy.
  Charge =   0.000000E+00: Neutral system requested explicitly.
  Occupation type: Gaussian broadening, width =   0.100000E-01 eV.
  Using pulay charge density mixing.
  Pulay mixing - number of memorized iterations:   10
  Charge density mixing - mixing parameter:     0.5000
  Convergence accuracy of self-consistent charge density:  0.1000E-04
  Convergence accuracy of sum of eigenvalues:  0.1000E-02
  Convergence accuracy of total energy:  0.1000E-05
  Maximum number of s.-c. iterations  :    60
  Forces will be computed.
  Cleaning forces before final output.
 
  Reading configuration options for species H                   .
  | Found nuclear charge :   1.0000
  | Found atomic mass :    1.00794000000000      amu
  | Found l_max for Hartree potential  :   4
  | Found cutoff potl. onset [A], width [A], scale factor :    3.50000    1.50000    1.00000
  | Threshold for basis-dependent cutoff potential is   0.100000E-03
  | Found data for basic radial integration grid :    24 points, outermost radius =    5.000 A
  | Found multiplier for basic radial grid :   1
  | Found angular grid specification: user-specified.
  | Specified grid contains     5 separate shells.
  | Check grid settings after all constraints further below.
  | Found free-atom valence shell :  1 s   1.000
  | No ionic wave fns used. Skipping ion_occ.
  | Found hydrogenic basis function :  2 s   2.100
  | Found hydrogenic basis function :  2 p   3.500
  Species H                   : Missing cutoff potential type.
  Defaulting to exp(1/x)/(1-x)^2 type cutoff potential.
  Species H : No 'logarithmic' tag. Using default grid for free atom:
  | Default logarithmic grid data [bohr] : 0.1000E-03 0.1000E+03 0.1012E+01
  Species H : On-site basis accuracy parameter (for Gram-Schmidt orthonormalisation) not specified.
  Using default value basis_acc =  0.1000000E-03.
  Species H                   : Using default innermost maximum threshold i_radial=  2 for radial functions.
  Species H                   : Default cutoff onset for free atom density etc. : 0.35000000E+01 AA.
  Species H                   : Basic radial grid will be enhanced according to radial_multiplier =   1, to contain    24 grid points.
 
  Reading configuration options for species C                   .
  | Found nuclear charge :   6.0000
  | Found atomic mass :    12.0107000000000      amu
  | Found l_max for Hartree potential  :   4
  | Found cutoff potl. onset [A], width [A], scale factor :    3.50000    1.50000    1.00000
  | Threshold for basis-dependent cutoff potential is   0.100000E-03
  | Found data for basic radial integration grid :    34 points, outermost radius =    5.000 A
  | Found multiplier for basic radial grid :   1
  | Found angular grid specification: user-specified.
  | Specified grid contains     5 separate shells.
  | Check grid settings after all constraints further below.
  | Found free-atom valence shell :  2 s   2.000
  | Found free-atom valence shell :  2 p   2.000
  | No ionic wave fns used. Skipping ion_occ.
  | No ionic wave fns used. Skipping ion_occ.
  | Found hydrogenic basis function :  2 p   1.700
  | Found hydrogenic basis function :  3 d   6.000
  | Found hydrogenic basis function :  2 s   4.900
  Species C                   : Missing cutoff potential type.
  Defaulting to exp(1/x)/(1-x)^2 type cutoff potential.
  Species C : No 'logarithmic' tag. Using default grid for free atom:
  | Default logarithmic grid data [bohr] : 0.1000E-03 0.1000E+03 0.1012E+01
  Species C : On-site basis accuracy parameter (for Gram-Schmidt orthonormalisation) not specified.
  Using default value basis_acc =  0.1000000E-03.
  Species C                   : Using default innermost maximum threshold i_radial=  2 for radial functions.
  Species C                   : Default cutoff onset for free atom density etc. : 0.35000000E+01 AA.
  Species C                   : Basic radial grid will be enhanced according to radial_multiplier =   1, to contain    34 grid points.
 
  Reading configuration options for species N                   .
  | Found nuclear charge :   7.0000
  | Found atomic mass :    14.0067000000000      amu
  | Found l_max for Hartree potential  :   4
  | Found cutoff potl. onset [A], width [A], scale factor :    3.50000    1.50000    1.00000
  | Threshold for basis-dependent cutoff potential is   0.100000E-03
  | Found data for basic radial integration grid :    35 points, outermost radius =    5.000 A
  | Found multiplier for basic radial grid :   1
  | Found angular grid specification: user-specified.
  | Specified grid contains     5 separate shells.
  | Check grid settings after all constraints further below.
  | Found free-atom valence shell :  2 s   2.000
  | Found free-atom valence shell :  2 p   3.000
  | No ionic wave fns used. Skipping ion_occ.
  | No ionic wave fns used. Skipping ion_occ.
  | Found hydrogenic basis function :  2 p   1.800
  | Found hydrogenic basis function :  3 d   6.800
  | Found hydrogenic basis function :  3 s   5.800
  Species N                   : Missing cutoff potential type.
  Defaulting to exp(1/x)/(1-x)^2 type cutoff potential.
  Species N : No 'logarithmic' tag. Using default grid for free atom:
  | Default logarithmic grid data [bohr] : 0.1000E-03 0.1000E+03 0.1012E+01
  Species N : On-site basis accuracy parameter (for Gram-Schmidt orthonormalisation) not specified.
  Using default value basis_acc =  0.1000000E-03.
  Species N                   : Using default innermost maximum threshold i_radial=  2 for radial functions.
  Species N                   : Default cutoff onset for free atom density etc. : 0.35000000E+01 AA.
  Species N                   : Basic radial grid will be enhanced according to radial_multiplier =   1, to contain    35 grid points.
 
  Reading configuration options for species O                   .
  | Found nuclear charge :   8.0000
  | Found atomic mass :    15.9994000000000      amu
  | Found l_max for Hartree potential  :   4
  | Found cutoff potl. onset [A], width [A], scale factor :    3.50000    1.50000    1.00000
  | Threshold for basis-dependent cutoff potential is   0.100000E-03
  | Found data for basic radial integration grid :    36 points, outermost radius =    5.000 A
  | Found multiplier for basic radial grid :   1
  | Found angular grid specification: user-specified.
  | Specified grid contains     5 separate shells.
  | Check grid settings after all constraints further below.
  | Found free-atom valence shell :  2 s   2.000
  | Found free-atom valence shell :  2 p   4.000
  | No ionic wave fns used. Skipping ion_occ.
  | No ionic wave fns used. Skipping ion_occ.
  | Found hydrogenic basis function :  2 p   1.800
  | Found hydrogenic basis function :  3 d   7.600
  | Found hydrogenic basis function :  3 s   6.400
  Species O                   : Missing cutoff potential type.
  Defaulting to exp(1/x)/(1-x)^2 type cutoff potential.
  Species O : No 'logarithmic' tag. Using default grid for free atom:
  | Default logarithmic grid data [bohr] : 0.1000E-03 0.1000E+03 0.1012E+01
  Species O : On-site basis accuracy parameter (for Gram-Schmidt orthonormalisation) not specified.
  Using default value basis_acc =  0.1000000E-03.
  Species O                   : Using default innermost maximum threshold i_radial=  2 for radial functions.
  Species O                   : Default cutoff onset for free atom density etc. : 0.35000000E+01 AA.
  Species O                   : Basic radial grid will be enhanced according to radial_multiplier =   1, to contain    36 grid points.
 
  Reading configuration options for species Na                  .
  | Found nuclear charge :  11.0000
  | Found atomic mass :    22.9897692800000      amu
  | Found l_max for Hartree potential  :   4
  | Found cutoff potl. onset [A], width [A], scale factor :    4.00000    1.50000    1.00000
  | Threshold for basis-dependent cutoff potential is   0.100000E-03
  | Found data for basic radial integration grid :    40 points, outermost radius =    5.500 A
  | Found multiplier for basic radial grid :   1
  | Found angular grid specification: user-specified.
  | Specified grid contains     4 separate shells.
  | Check grid settings after all constraints further below.
  | Found free-atom valence shell :  3 s   1.000
  | Found free-atom valence shell :  2 p   6.000
  | No ionic wave fns used. Skipping ion_occ.
  | No ionic wave fns used. Skipping ion_occ.
  | Found hydrogenic basis function :  2 p   1.200
  | Found hydrogenic basis function :  3 s   1.800
  | Found hydrogenic basis function :  3 d   3.800
  Species Na                  : Missing cutoff potential type.
  Defaulting to exp(1/x)/(1-x)^2 type cutoff potential.
  Species Na: No 'logarithmic' tag. Using default grid for free atom:
  | Default logarithmic grid data [bohr] : 0.1000E-03 0.1000E+03 0.1012E+01
  Species Na: On-site basis accuracy parameter (for Gram-Schmidt orthonormalisation) not specified.
  Using default value basis_acc =  0.1000000E-03.
  Species Na                  : Using default innermost maximum threshold i_radial=  2 for radial functions.
  Species Na                  : Default cutoff onset for free atom density etc. : 0.40000000E+01 AA.
  Species Na                  : Basic radial grid will be enhanced according to radial_multiplier =   1, to contain    40 grid points.
 
  Finished reading input file 'control.in'. Consistency checks are next.
 
  MPI_IN_PLACE appears to work with this MPI implementation.
  | Keeping use_mpi_in_place .true. (see manual).
  Target number of points in a grid batch is not set. Defaulting to  100
  Method for grid partitioning is not set. Defaulting to parallel hash+maxmin partitioning.
  Batch size limit is not set. Defaulting to    200
  By default, will store active basis functions for each batch.
  If in need of memory, prune_basis_once .false. can be used to disable this option.
  communication_type for Hartree potential was not specified.
  Defaulting to calc_hartree .
  Pulay mixer: Number of initial linear mixing iterations not set.
  Defaulting to    0 iterations.
  Work space size for distributed Hartree potential not set.
  Defaulting to   0.200000E+03 MB.
  Algorithm-dependent basis array size parameters:
  | n_max_pulay                         :       10
  Presetting        40 iterations before the initial mixing cycle
  is restarted anyway using the sc_init_iter criterion / keyword.
  Presetting a factor      1.000 between actual scf density residual
  and density convergence criterion sc_accuracy_rho below which sc_init_iter
  takes no effect.
  Geometry relaxation not requested: no relaxation will be performed.
  Force calculation: scf convergence accuracy of forces not set.
  Defaulting to 'sc_accuracy_forces not_checked'.
  Handling of forces: Unphysical translation and rotation will be removed from forces.
  No accuracy limit for integral partition fn. given. Defaulting to  0.1000E-14.
  No threshold value for u(r) in integrations given. Defaulting to  0.1000E-05.
  No accuracy for occupation numbers given. Defaulting to  0.1000E-12.
  No threshold value for occupation numbers given. Defaulting to  0.0000E+00.
  No accuracy for fermi level given. Defaulting to  0.1000E-19.
  Maximum # of iterations to find E_F not set. Defaulting to  200.
  Preferred method for the eigenvalue solver ('KS_method') not specified in 'control.in'.
  Calling BLACS routine to test compilation state
  The best choice would be 'elsi', but your version of FHI-aims is compiled without ScaLAPACK support.
  Defaulting to 'lapack_fast' instead (serial solution, time will not improve with more CPUs).
  Will not use alltoall communication since running on < 1024 CPUs.
  Threshold for basis singularities not set.
  Default threshold for basis singularities:  0.1000E-04
  partition_type (choice of integration weights) for integrals was not specified.
  | Using a version of the partition function of Stratmann and coworkers ('stratmann_smoother').
  | At each grid point, the set of atoms used to build the partition table is smoothly restricted to
  | only those atoms whose free-atom density would be non-zero at that grid point.
  Partitioning for Hartree potential was not defined. Using partition_type for integrals.
  | Adjusted default value of keyword multip_moments_threshold to:       0.10000000E-11
  | This value may affect high angular momentum components of the Hartree potential in periodic systems.
  No q(lm)/r^(l+1) cutoff set for long-range Hartree potential.
  | Using default value of  0.100000E-09 .
  | Verify using the multipole_threshold keyword.
  Defaulting to new monopole extrapolation.
  Density update method: automatic selection selected.
------------------------------------------------------------


------------------------------------------------------------
          Reading geometry description geometry.in.
------------------------------------------------------------
  Input structure read successfully.
  The structure contains       22 atoms,  and a total of         78.000 electrons.

  Input geometry:
  | No unit cell requested.
  | Atomic structure:
  |       Atom                x [A]            y [A]            z [A]
  |    1: Species C            -2.39159895       -3.07968338       -0.92405726
  |    2: Species C            -1.96157521       -1.61821590       -0.84512073
  |    3: Species O            -2.72546670       -0.66977923       -1.04370661
  |    4: Species H            -2.07037793       -3.63767177       -0.03289569
  |    5: Species H            -3.47971417       -3.13301832       -1.01712622
  |    6: Species H            -1.93570063       -3.56183620       -1.80190863
  |    7: Species N            -0.64154349       -1.47344013       -0.52751265
  |    8: Species C             0.11045119       -0.23191237       -0.53579092
  |    9: Species C            -0.27715965        0.70285785        0.62380097
  |   10: Species C             1.58735169       -0.70649735       -0.50604135
  |   11: Species O             1.86609606       -1.91290960       -0.49265836
  |   12: Species H            -0.02267168       -2.28998210       -0.50880262
  |   13: Species H            -0.06657673        0.30965903       -1.48529841
  |   14: Species H            -1.34502112        0.94211616        0.53696318
  |   15: Species H            -0.10180956        0.21818719        1.59370051
  |   16: Species H             0.28437018        1.64814182        0.59371548
  |   17: Species N             2.57434082        0.22428951       -0.48654595
  |   18: Species C             3.95978405       -0.22802234       -0.40203594
  |   19: Species H             2.36136533        1.21535583       -0.52693446
  |   20: Species H             4.08905455       -0.86712599        0.48272982
  |   21: Species H             4.23104041       -0.82853916       -1.28221167
  |   22: Species H             4.62412618        0.63844677       -0.33061889
  |

  | The smallest distance between any two atoms is         1.01449605 AA.
  |
  | The first atom of this pair is atom number                     17 .
  | The second atom of this pair is atom number                    19 .

  Number of empty states per atom not set in control.in - providing a guess from actual geometry.
  | Total number of empty states used during s.c.f. cycle:       48
  If you use a very high smearing, use empty_states (per atom!) in control.in to increase this value.

  Structure-dependent array size parameters: 
  | Maximum number of distinct radial functions  :       28
  | Maximum number of basis functions            :      200
  | Number of Kohn-Sham states (occupied + empty):       87
------------------------------------------------------------

------------------------------------------------------------
          Preparing all fixed parts of the calculation.
------------------------------------------------------------
  Determining machine precision:
    2.225073858507201E-308
  Setting up grids for atomic and cluster calculations.

  Creating wave function, potential, and density for free atoms.

  Species: H

  List of occupied orbitals and eigenvalues:
    n    l              occ      energy [Ha]    energy [eV]
    1    0           1.0000        -0.237589        -6.4651


  Species: C

  List of occupied orbitals and eigenvalues:
    n    l              occ      energy [Ha]    energy [eV]
    1    0           2.0000       -10.038835      -273.1706
    2    0           2.0000        -0.502696       -13.6791
    2    1           2.0000        -0.191971        -5.2238


  Species: N

  List of occupied orbitals and eigenvalues:
    n    l              occ      energy [Ha]    energy [eV]
    1    0           2.0000       -14.128000      -384.4424
    2    0           2.0000        -0.681077       -18.5330
    2    1           3.0000        -0.259788        -7.0692


  Species: O

  List of occupied orbitals and eigenvalues:
    n    l              occ      energy [Ha]    energy [eV]
    1    0           2.0000       -18.898188      -514.2459
    2    0           2.0000        -0.878505       -23.9053
    2    1           4.0000        -0.331779        -9.0282


  Species: Na

  List of occupied orbitals and eigenvalues:
    n    l              occ      energy [Ha]    energy [eV]
    1    0           2.0000       -37.908205     -1031.5347
    2    0           2.0000        -2.061650       -56.1004
    3    0           1.0000        -0.086939        -2.3657
    2    1           6.0000        -1.037965       -28.2445

  Creating fixed part of basis set: Ionic, confined, hydrogenic.
 
  H                    hydrogenic:
 
  List of hydrogenic basis orbitals: 
    n    l      effective z      eigenvalue [eV]  inner max. [A]     outer max. [A]     outer radius [A]   
    2    0         2.100000       -14.9728           0.193243           1.317208           4.583499
    2    1         3.500000       -41.6669           0.602369           0.602369           3.723403
 
 
  C                    hydrogenic:
 
  List of hydrogenic basis orbitals: 
    n    l      effective z      eigenvalue [eV]  inner max. [A]     outer max. [A]     outer radius [A]   
    2    1         1.700000        -9.7616           1.230570           1.230570           4.607917
    3    2         6.000000       -54.4224           0.792453           0.792453           3.883070
    2    0         4.900000       -81.6679           0.082559           0.562749           3.078220
 
 
  N                    hydrogenic:
 
  List of hydrogenic basis orbitals: 
    n    l      effective z      eigenvalue [eV]  inner max. [A]     outer max. [A]     outer radius [A]   
    2    1         1.800000       -10.9749           1.177451           1.177451           4.573712
    3    2         6.800000       -69.9026           0.704619           0.704619           3.538137
    3    0         5.800000       -50.8545           0.067388           1.191934           4.250239
 
 
  O                    hydrogenic:
 
  List of hydrogenic basis orbitals: 
    n    l      effective z      eigenvalue [eV]  inner max. [A]     outer max. [A]     outer radius [A]   
    2    1         1.800000       -10.9749           1.164242           1.164242           4.578029
    3    2         7.600000       -87.3180           0.624125           0.624125           3.251020
    3    0         6.400000       -61.9207           0.061167           1.081902           4.001998
 
 
  Na                   hydrogenic:
 
  List of hydrogenic basis orbitals: 
    n    l      effective z      eigenvalue [eV]  inner max. [A]     outer max. [A]     outer radius [A]   
    2    1         1.200000        -4.7043           1.699681           1.699681           5.107393
    3    0         1.800000        -2.7647           0.215330           3.132057           5.107393
    3    2         3.800000       -21.8265           1.252092           1.252092           5.045336
 

  Adding cutoff potential to free-atom effective potential.
  Creating atomic-like basis functions for current effective potential.

  Species H                   :

  List of atomic basis orbitals and eigenvalues:
    n    l      energy [Ha]    energy [eV]    outer radius [A]
    1    0        -0.237589        -6.4651       4.527807


  Species C                   :

  List of atomic basis orbitals and eigenvalues:
    n    l      energy [Ha]    energy [eV]    outer radius [A]
    1    0       -10.038835      -273.1706       1.934409
    2    0        -0.502696       -13.6791       4.496620
    2    1        -0.191971        -5.2238       4.551928


  Species N                   :

  List of atomic basis orbitals and eigenvalues:
    n    l      energy [Ha]    energy [eV]    outer radius [A]
    1    0       -14.128000      -384.4424       1.637919
    2    0        -0.681077       -18.5330       4.463241
    2    1        -0.259788        -7.0692       4.518138


  Species O                   :

  List of atomic basis orbitals and eigenvalues:
    n    l      energy [Ha]    energy [eV]    outer radius [A]
    1    0       -18.898188      -514.2459       1.415765
    2    0        -0.878505       -23.9053       4.413171
    2    1        -0.331779        -9.0282       4.522403


  Species Na                  :

  List of atomic basis orbitals and eigenvalues:
    n    l      energy [Ha]    energy [eV]    outer radius [A]
    1    0       -37.908205     -1031.5347       1.017136
    2    0        -2.061650       -56.1004       4.251681
    3    0        -0.086939        -2.3657       5.107393
    2    1        -1.037965       -28.2445       4.746176

  Assembling full basis from fixed parts.
  | Species H :   atomic orbital   1 s accepted.
  | Species H :    hydro orbital   2 s accepted.
  | Species H :    hydro orbital   2 p accepted.
  | Species C :   atomic orbital   1 s accepted.
  | Species C :    hydro orbital   2 s accepted.
  | Species C :   atomic orbital   2 s accepted.
  | Species C :   atomic orbital   2 p accepted.
  | Species C :    hydro orbital   2 p accepted.
  | Species C :    hydro orbital   3 d accepted.
  | Species N :   atomic orbital   1 s accepted.
  | Species N :    hydro orbital   3 s accepted.
  | Species N :   atomic orbital   2 s accepted.
  | Species N :   atomic orbital   2 p accepted.
  | Species N :    hydro orbital   2 p accepted.
  | Species N :    hydro orbital   3 d accepted.
  | Species O :   atomic orbital   1 s accepted.
  | Species O :    hydro orbital   3 s accepted.
  | Species O :   atomic orbital   2 s accepted.
  | Species O :   atomic orbital   2 p accepted.
  | Species O :    hydro orbital   2 p accepted.
  | Species O :    hydro orbital   3 d accepted.
  | Species Na :   atomic orbital   1 s accepted.
  | Species Na :   atomic orbital   2 s accepted.
  | Species Na :   atomic orbital   3 s accepted.
  | Species Na :    hydro orbital   3 s accepted.
  | Species Na :   atomic orbital   2 p accepted.
  | Species Na :    hydro orbital   2 p accepted.
  | Species Na :    hydro orbital   3 d accepted.
 
  Basis size parameters after reduction:
  | Total number of radial functions:       28
  | Total number of basis functions :      200
 
  Per-task memory consumption for arrays in subroutine allocate_ext:
  |           7.142412MB.
  Testing on-site integration grid accuracy.
  |  Species  Function  <phi|h_atom|phi> (log., in eV)  <phi|h_atom|phi> (rad., in eV)
           1        1                 -6.4663192853                 -6.4651273558
           1        2                 13.7111246313                 13.7170609718
           1        3                 25.2673269279                 25.2674696378
           2        4               -273.1705927641               -273.1705631568
           2        5                -10.7109323383                -10.7107120029
           2        6                 17.4381822266                 17.4352413244
           2        7                 -5.2255326521                 -5.2270484734
           2        8                  8.6835629259                  8.6603288385
           2        9                 27.4952418996                 27.4953360207
           3       10               -384.4424306495               -384.4423701208
           3       11                 12.5842251816                 12.5842222903
           3       12                -15.7264628251                -15.7264433455
           3       13                 -7.0696854293                 -7.0701769954
           3       14                  8.8090390882                  8.7901077751
           3       15                 35.9586762123                 35.9588528632
           4       16               -514.2458688638               -514.2457643834
           4       17                 15.1795651126                 15.1795290741
           4       18                -21.5359799773                -21.5360846186
           4       19                 -9.0283069236                 -9.0284644067
           4       20                  8.3027758564                  8.2834874195
           4       21                 45.8339351984                 45.8338762259
           5       22              -1031.5347301569              -1031.5343700005
           5       23                -56.1003590737                -56.1003577733
           5       24                 -2.3872449526                 -2.3874266514
           5       25                  4.8089581560                  4.7916273983
           5       26                -28.2444627299                -28.2444626864
           5       27                  0.6487953582                  0.6484930494
           5       28                 10.4219557667                 10.4220291668

  Preparing densities etc. for the partition functions (integrals / Hartree potential).

  Preparations completed.
  max(cpu_time)          :      0.304 s.
  Wall clock time (cpu1) :      0.305 s.
------------------------------------------------------------

------------------------------------------------------------
          Begin self-consistency loop: Initialization.

          Date     :  20180216, Time     :  134326.948
------------------------------------------------------------

  Initializing index lists of integration centers etc. from given atomic structure:
  | Number of centers in hartree potential         :        22
  | Number of centers in hartree multipole         :        22
  | Number of centers in electron density summation:        22
  | Number of centers in basis integrals           :        22
  | Number of centers in integrals                 :        22
  | Number of centers in hamiltonian               :        22
  Partitioning the integration grid into batches with parallel hashing+maxmin method.
  | Number of batches:     1218
  | Maximal batch size:     194
  | Minimal batch size:      51
  | Average batch size:      95.997
  | Standard deviation of batch sizes:      30.266

  Integration load balanced across     8 MPI tasks.
  Work distribution over tasks is as follows:
  Task     0 has      14633 integration points.
  Task     1 has      14580 integration points.
  Task     2 has      14596 integration points.
  Task     3 has      14568 integration points.
  Task     4 has      14558 integration points.
  Task     5 has      14576 integration points.
  Task     6 has      14663 integration points.
  Task     7 has      14750 integration points.
  Initializing partition tables, free-atom densities, potentials, etc. across the integration grid (initialize_grid_storage).
  | initialize_grid_storage: Actual outermost partition radius vs. multipole_radius_free
  | (-- VB: in principle, multipole_radius_free should be larger, hence this output)
  | Species        1: Confinement radius =              4.999999999999999 AA, multipole_radius_free =              5.054417573612229 AA.
  | Species        1: outer_partition_radius set to              5.054417573612229 AA .
  | Species        2: Confinement radius =              4.999999999999999 AA, multipole_radius_free =              5.019602836301480 AA.
  | Species        2: outer_partition_radius set to              5.019602836301480 AA .
  | Species        3: Confinement radius =              4.999999999999999 AA, multipole_radius_free =              5.043624274424571 AA.
  | Species        3: outer_partition_radius set to              5.043624274424571 AA .
  | Species        4: Confinement radius =              4.999999999999999 AA, multipole_radius_free =              5.048384829883283 AA.
  | Species        4: outer_partition_radius set to              5.048384829883283 AA .
  | Species        5: Confinement radius =              5.500000000000000 AA, multipole_radius_free =              5.563704032673898 AA.
  | Species        5: outer_partition_radius set to              5.563704032673898 AA .
  | Original list of interatomic distances with          22 x         22 entries is created.
  | Net number of integration points:   116924
  | of which are non-zero points    :    99233
  Renormalizing the initial density to the exact electron count on the 3D integration grid.
  | Initial density: Formal number of electrons (from input files) :      78.0000000000
  | Integrated number of electrons on 3D grid     :      77.9998821281
  | Charge integration error                      :      -0.0001178719
  | Normalization factor for density and gradient :       1.0000015112
  Obtaining max. number of non-zero basis functions in each batch (get_n_compute_maxes).
  | Maximal number of non-zero basis functions:      192 in task     0
  | Maximal number of non-zero basis functions:      191 in task     1
  | Maximal number of non-zero basis functions:      188 in task     2
  | Maximal number of non-zero basis functions:      189 in task     3
  | Maximal number of non-zero basis functions:      192 in task     4
  | Maximal number of non-zero basis functions:      187 in task     5
  | Maximal number of non-zero basis functions:      191 in task     6
  | Maximal number of non-zero basis functions:      189 in task     7
  Selecting the method for density update.
  Loop over occupied states selected for charge density update.
  Allocating        0.139 MB for KS_eigenvector
  Integrating Hamiltonian matrix: batch-based integration.
  Time summed over all CPUs for integration: real work        4.508 s, elapsed        4.637 s
  Integrating overlap matrix.
  Time summed over all CPUs for integration: real work        1.908 s, elapsed        1.959 s

  Updating Kohn-Sham eigenvalues, eigenvectors, occupation numbers, and Fermi level.
  Solving generalized eigenproblem
  Updating Kohn-Sham eigenvalues and eigenfunctions.
  Transforming overlap matrix and checking for singularities.
  Overlap matrix is nonsingular:
  | Lowest eigenvalue:  0.267776E-02
  Solving real generalised eigenvalue problem by standard LAPACK (fast)

  Obtaining occupation numbers and chemical potential using ELSI.
  | Chemical potential (Fermi level):    -9.34257845eV
  Writing Kohn-Sham eigenvalues.

  State    Occupation    Eigenvalue [Ha]    Eigenvalue [eV]
      1       2.00000         -18.971212         -516.23294
      2       2.00000         -18.970151         -516.20407
      3       2.00000         -14.251468         -387.80218
      4       2.00000         -14.249874         -387.75880
      5       2.00000         -10.164964         -276.60273
      6       2.00000         -10.164295         -276.58453
      7       2.00000         -10.161544         -276.50968
      8       2.00000         -10.141241         -275.95721
      9       2.00000         -10.130329         -275.66029
     10       2.00000         -10.128988         -275.62379
     11       2.00000          -1.129446          -30.73380
     12       2.00000          -1.121141          -30.50779
     13       2.00000          -1.010888          -27.50767
     14       2.00000          -1.005737          -27.36749
     15       2.00000          -0.879620          -23.93569
     16       2.00000          -0.834993          -22.72133
     17       2.00000          -0.810740          -22.06137
     18       2.00000          -0.759316          -20.66204
     19       2.00000          -0.692591          -18.84637
     20       2.00000          -0.672175          -18.29081
     21       2.00000          -0.641461          -17.45504
     22       2.00000          -0.598254          -16.27933
     23       2.00000          -0.591356          -16.09162
     24       2.00000          -0.577921          -15.72602
     25       2.00000          -0.569796          -15.50495
     26       2.00000          -0.553761          -15.06860
     27       2.00000          -0.546634          -14.87467
     28       2.00000          -0.542810          -14.77061
     29       2.00000          -0.526877          -14.33706
     30       2.00000          -0.526197          -14.31856
     31       2.00000          -0.513826          -13.98193
     32       2.00000          -0.506928          -13.79422
     33       2.00000          -0.493382          -13.42561
     34       2.00000          -0.479630          -13.05141
     35       2.00000          -0.466164          -12.68496
     36       2.00000          -0.403256          -10.97315
     37       2.00000          -0.396970          -10.80210
     38       2.00000          -0.388725          -10.57774
     39       2.00000          -0.377549          -10.27362
     40       0.00000          -0.158092           -4.30190
     41       0.00000          -0.148130           -4.03081
     42       0.00000          -0.059958           -1.63154
     43       0.00000          -0.042470           -1.15567
     44       0.00000          -0.031374           -0.85372
     45       0.00000          -0.016580           -0.45115
     46       0.00000          -0.011932           -0.32468
     47       0.00000          -0.004024           -0.10949
     48       0.00000           0.004735            0.12884
     49       0.00000           0.017893            0.48689
     50       0.00000           0.020325            0.55306
     51       0.00000           0.024098            0.65575
     52       0.00000           0.027727            0.75448
     53       0.00000           0.033635            0.91526
     54       0.00000           0.036851            1.00276
     55       0.00000           0.056832            1.54648
     56       0.00000           0.059214            1.61129
     57       0.00000           0.078382            2.13287
     58       0.00000           0.088194            2.39989
     59       0.00000           0.118835            3.23366
     60       0.00000           0.148987            4.05415
     61       0.00000           0.163494            4.44890
     62       0.00000           0.181265            4.93247
     63       0.00000           0.190780            5.19140
     64       0.00000           0.202306            5.50504
     65       0.00000           0.209790            5.70867
     66       0.00000           0.224376            6.10559
     67       0.00000           0.240035            6.53168
     68       0.00000           0.250869            6.82648
     69       0.00000           0.263596            7.17280
     70       0.00000           0.271051            7.37566
     71       0.00000           0.277059            7.53917
     72       0.00000           0.288171            7.84154
     73       0.00000           0.304949            8.29808
     74       0.00000           0.318070            8.65513
     75       0.00000           0.329742            8.97272
     76       0.00000           0.367942           10.01222
     77       0.00000           0.375026           10.20497
     78       0.00000           0.386301           10.51178
     79       0.00000           0.406961           11.07397
     80       0.00000           0.437464           11.90399
     81       0.00000           0.450652           12.26286
     82       0.00000           0.469323           12.77092
     83       0.00000           0.482822           13.13826
     84       0.00000           0.511791           13.92653
     85       0.00000           0.525885           14.31005
     86       0.00000           0.554821           15.09745
     87       0.00000           0.572792           15.58646

  Highest occupied state (VBM) at    -10.27362146 eV
  | Occupation number:      2.00000000

  Lowest unoccupied state (CBM) at    -4.30190160 eV
  | Occupation number:      0.00000000

  Overall HOMO-LUMO gap:      5.97171986 eV.
  Calculating total energy contributions from superposition of free atom densities.

  Total energy components:
  | Sum of eigenvalues            :        -291.90442524 Ha       -7943.12355234 eV
  | XC energy correction          :         -66.06373877 Ha       -1797.68579730 eV
  | XC potential correction       :          84.91382865 Ha        2310.62284071 eV
  | Free-atom electrostatic energy:        -222.84334572 Ha       -6063.87596366 eV
  | Hartree energy correction     :           0.00000000 Ha           0.00000000 eV
  | vdW energy correction         :           0.00000000 Ha           0.00000000 eV
  | Entropy correction            :           0.00000000 Ha           0.00000000 eV
  | ---------------------------
  | Total energy                  :        -495.89768108 Ha      -13494.06247259 eV
  | Total energy, T -> 0          :        -495.89768108 Ha      -13494.06247259 eV  <-- do not rely on this value for anything but (periodic) metals
  | Electronic free energy        :        -495.89768108 Ha      -13494.06247259 eV

  Derived energy quantities:
  | Kinetic energy                :         490.36362731 Ha       13343.47320766 eV
  | Electrostatic energy          :        -920.19756962 Ha      -25039.84988294 eV
  | Energy correction for multipole
  | error in Hartree potential    :           0.00000000 Ha           0.00000000 eV
  | Sum of eigenvalues per atom                           :        -361.05107056 eV
  | Total energy (T->0) per atom                          :        -613.36647603 eV  <-- do not rely on this value for anything but (periodic) metals
  | Electronic free energy per atom                       :        -613.36647603 eV
  Initialize hartree_potential_storage
  Max. number of atoms included in rho_multipole:           22

  End scf initialization - timings             :  max(cpu_time)    wall_clock(cpu1)
  | Time for scf. initialization               :        1.428 s           1.431 s
  | Boundary condition initialization          :        0.000 s           0.000 s
  | Integration                                :        0.820 s           0.819 s
  | Solution of K.-S. eqns.                    :        0.044 s           0.043 s
  | Grid partitioning                          :        0.172 s           0.171 s
  | Preloading free-atom quantities on grid    :        0.012 s           0.008 s
  | Free-atom superposition energy             :        0.064 s           0.065 s
  | Total energy evaluation                    :        0.004 s           0.000 s

  Partial memory accounting:
  | Current value for overall tracked memory usage on task 0  :           0.782 MB
  | Peak value for overall tracked memory usage on task 0     :           1.655 MB after allocating wave
  | Largest tracked array allocation on task 0 so far         :           0.320 MB  when allocating ovlp
  Note:  These values currently only include a subset of arrays which are explicitly tracked.
  The "true" memory usage will be greater.
------------------------------------------------------------

------------------------------------------------------------
          Begin self-consistency iteration #    1

  Date     :  20180216, Time     :  134328.380
------------------------------------------------------------
  Evaluating new KS density.
  Integration grid: deviation in total charge (<rho> - N_e) =  -2.842171E-14
  Pulay mixing of updated and previous charge densities.

  Evaluating partitioned Hartree potential by multipole expansion.
  | Analytical far-field extrapolation by fixed multipoles:
  | Hartree multipole sum: apparent total charge =  -0.556049E-03
  Summing up the Hartree potential.
  Time summed over all CPUs for potential: real work        4.609 s, elapsed        4.634 s
  | RMS charge density error from multipole expansion :   0.204376E-01

  Integrating Hamiltonian matrix: batch-based integration.
  Time summed over all CPUs for integration: real work        4.494 s, elapsed        4.624 s

  Updating Kohn-Sham eigenvalues, eigenvectors, occupation numbers, and Fermi level.
  Solving generalized eigenproblem
  Updating Kohn-Sham eigenvalues and eigenfunctions.
  Solving real generalised eigenvalue problem by standard LAPACK (fast)

  Obtaining occupation numbers and chemical potential using ELSI.
  | Chemical potential (Fermi level):    -2.23526070eV
  Writing Kohn-Sham eigenvalues.

  State    Occupation    Eigenvalue [Ha]    Eigenvalue [eV]
      1       2.00000         -18.628161         -506.89806
      2       2.00000         -18.597440         -506.06208
      3       2.00000         -13.990100         -380.68998
      4       2.00000         -13.958749         -379.83689
      5       2.00000         -10.064689         -273.87412
      6       2.00000         -10.040721         -273.22191
      7       2.00000          -9.960673         -271.04369
      8       2.00000          -9.885861         -269.00797
      9       2.00000          -9.835826         -267.64644
     10       2.00000          -9.832195         -267.54763
     11       2.00000          -0.973838          -26.49947
     12       2.00000          -0.940809          -25.60071
     13       2.00000          -0.867436          -23.60412
     14       2.00000          -0.850387          -23.14021
     15       2.00000          -0.736796          -20.04923
     16       2.00000          -0.682502          -18.57181
     17       2.00000          -0.666999          -18.14997
     18       2.00000          -0.619226          -16.85000
     19       2.00000          -0.572543          -15.57970
     20       2.00000          -0.538071          -14.64165
     21       2.00000          -0.511107          -13.90793
     22       2.00000          -0.464353          -12.63570
     23       2.00000          -0.447379          -12.17380
     24       2.00000          -0.433017          -11.78300
     25       2.00000          -0.424177          -11.54244
     26       2.00000          -0.419528          -11.41593
     27       2.00000          -0.404884          -11.01745
     28       2.00000          -0.394517          -10.73535
     29       2.00000          -0.385241          -10.48293
     30       2.00000          -0.376500          -10.24508
     31       2.00000          -0.364685           -9.92357
     32       2.00000          -0.356754           -9.70776
     33       2.00000          -0.344490           -9.37406
     34       2.00000          -0.341939           -9.30463
     35       2.00000          -0.319929           -8.70571
     36       2.00000          -0.242355           -6.59481
     37       2.00000          -0.228163           -6.20864
     38       2.00000          -0.217949           -5.93071
     39       2.00000          -0.194213           -5.28482
     40       0.00000          -0.049412           -1.34457
     41       0.00000          -0.027630           -0.75184
     42       0.00000          -0.002231           -0.06071
     43       0.00000           0.036255            0.98654
     44       0.00000           0.048278            1.31370
     45       0.00000           0.065676            1.78714
     46       0.00000           0.070864            1.92832
     47       0.00000           0.085983            2.33970
     48       0.00000           0.087581            2.38321
     49       0.00000           0.110729            3.01308
     50       0.00000           0.114603            3.11851
     51       0.00000           0.117263            3.19088
     52       0.00000           0.118531            3.22540
     53       0.00000           0.127126            3.45928
     54       0.00000           0.137478            3.74098
     55       0.00000           0.144472            3.93128
     56       0.00000           0.160714            4.37325
     57       0.00000           0.172622            4.69729
     58       0.00000           0.192612            5.24123
     59       0.00000           0.211267            5.74886
     60       0.00000           0.226777            6.17092
     61       0.00000           0.258386            7.03105
     62       0.00000           0.264218            7.18974
     63       0.00000           0.274442            7.46795
     64       0.00000           0.293722            7.99257
     65       0.00000           0.309639            8.42570
     66       0.00000           0.317333            8.63508
     67       0.00000           0.325768            8.86459
     68       0.00000           0.350072            9.52595
     69       0.00000           0.356977            9.71384
     70       0.00000           0.378418           10.29728
     71       0.00000           0.383103           10.42476
     72       0.00000           0.385324           10.48520
     73       0.00000           0.408932           11.12760
     74       0.00000           0.425010           11.56512
     75       0.00000           0.433323           11.79132
     76       0.00000           0.466979           12.70714
     77       0.00000           0.485949           13.22335
     78       0.00000           0.494132           13.44601
     79       0.00000           0.514447           13.99882
     80       0.00000           0.535717           14.57759
     81       0.00000           0.549305           14.94734
     82       0.00000           0.570599           15.52678
     83       0.00000           0.579599           15.77170
     84       0.00000           0.602493           16.39466
     85       0.00000           0.623387           16.96323
     86       0.00000           0.651405           17.72563
     87       0.00000           0.671759           18.27949

  Highest occupied state (VBM) at     -5.28481548 eV
  | Occupation number:      2.00000000

  Lowest unoccupied state (CBM) at    -1.34457037 eV
  | Occupation number:      0.00000000

  Overall HOMO-LUMO gap:      3.94024510 eV.

  Total energy components:
  | Sum of eigenvalues            :        -278.22839753 Ha       -7570.97990401 eV
  | XC energy correction          :         -67.37138744 Ha       -1833.26872798 eV
  | XC potential correction       :          86.61107431 Ha        2356.80724508 eV
  | Free-atom electrostatic energy:        -222.84334572 Ha       -6063.87596366 eV
  | Hartree energy correction     :         -13.68830034 Ha        -372.47760357 eV
  | vdW energy correction         :           0.00000000 Ha           0.00000000 eV
  | Entropy correction            :           0.00000000 Ha           0.00000000 eV
  | ---------------------------
  | Total energy                  :        -495.52035671 Ha      -13483.79495414 eV
  | Total energy, T -> 0          :        -495.52035671 Ha      -13483.79495414 eV  <-- do not rely on this value for anything but (periodic) metals
  | Electronic free energy        :        -495.52035671 Ha      -13483.79495414 eV

  Derived energy quantities:
  | Kinetic energy                :         496.49341845 Ha       13510.27331120 eV
  | Electrostatic energy          :        -924.64238772 Ha      -25160.79953735 eV
  | Energy correction for multipole
  | error in Hartree potential    :           0.06008562 Ha           1.63501281 eV
  | Sum of eigenvalues per atom                           :        -344.13545018 eV
  | Total energy (T->0) per atom                          :        -612.89977064 eV  <-- do not rely on this value for anything but (periodic) metals
  | Electronic free energy per atom                       :        -612.89977064 eV

  Self-consistency convergence accuracy:
  | Change of charge density      :  0.7251E+00
  | Change of sum of eigenvalues  :  0.3721E+03 eV
  | Change of total energy        :  0.1027E+02 eV

  End self-consistency iteration #     1       :  max(cpu_time)    wall_clock(cpu1)
  | Time for this iteration                    :        1.752 s           1.754 s
  | Charge density update                      :        0.572 s           0.570 s
  | Density mixing                             :        0.004 s           0.003 s
  | Hartree multipole update                   :        0.020 s           0.019 s
  | Hartree multipole summation                :        0.576 s           0.575 s
  | Integration                                :        0.576 s           0.574 s
  | Solution of K.-S. eqns.                    :        0.012 s           0.008 s
  | Total energy evaluation                    :        0.000 s           0.001 s

  Partial memory accounting:
  | Current value for overall tracked memory usage on task 0  :           0.782 MB
  | Peak value for overall tracked memory usage on task 0     :           1.975 MB after allocating wave
  | Largest tracked array allocation on task 0 so far         :           0.894 MB  when allocating gradient_basis_wave
  Note:  These values currently only include a subset of arrays which are explicitly tracked.
  The "true" memory usage will be greater.
------------------------------------------------------------

------------------------------------------------------------
          Begin self-consistency iteration #    2

  Date     :  20180216, Time     :  134330.135
------------------------------------------------------------
  Evaluating new KS density.
  Integration grid: deviation in total charge (<rho> - N_e) =   2.842171E-14
  Pulay mixing of updated and previous charge densities.

  Evaluating partitioned Hartree potential by multipole expansion.
  | Analytical far-field extrapolation by fixed multipoles:
  | Hartree multipole sum: apparent total charge =  -0.617150E-03
  Summing up the Hartree potential.
  Time summed over all CPUs for potential: real work        4.627 s, elapsed        4.656 s
  | RMS charge density error from multipole expansion :   0.261956E-01

  Integrating Hamiltonian matrix: batch-based integration.
  Time summed over all CPUs for integration: real work        4.512 s, elapsed        4.645 s

  Updating Kohn-Sham eigenvalues, eigenvectors, occupation numbers, and Fermi level.
  Solving generalized eigenproblem
  Updating Kohn-Sham eigenvalues and eigenfunctions.
  Solving real generalised eigenvalue problem by standard LAPACK (fast)

  Obtaining occupation numbers and chemical potential using ELSI.
  | Chemical potential (Fermi level):    -2.07755825eV
  Highest occupied state (VBM) at     -6.22069233 eV
  | Occupation number:      2.00000000

  Lowest unoccupied state (CBM) at    -1.28708390 eV
  | Occupation number:      0.00000000

  Overall HOMO-LUMO gap:      4.93360844 eV.

  Checking to see if s.c.f. parameters should be adjusted.

  Total energy components:
  | Sum of eigenvalues            :        -278.90103576 Ha       -7589.28332157 eV
  | XC energy correction          :         -67.29130515 Ha       -1831.08957805 eV
  | XC potential correction       :          86.50025644 Ha        2353.79173732 eV
  | Free-atom electrostatic energy:        -222.84334572 Ha       -6063.87596366 eV
  | Hartree energy correction     :         -12.94305030 Ha        -352.19831836 eV
  | vdW energy correction         :           0.00000000 Ha           0.00000000 eV
  | Entropy correction            :           0.00000000 Ha           0.00000000 eV
  | ---------------------------
  | Total energy                  :        -495.47848050 Ha      -13482.65544432 eV
  | Total energy, T -> 0          :        -495.47848050 Ha      -13482.65544432 eV  <-- do not rely on this value for anything but (periodic) metals
  | Electronic free energy        :        -495.47848050 Ha      -13482.65544432 eV

  Derived energy quantities:
  | Kinetic energy                :         494.67819397 Ha       13460.87853993 eV
  | Electrostatic energy          :        -922.86536932 Ha      -25112.44440619 eV
  | Energy correction for multipole
  | error in Hartree potential    :           0.07143405 Ha           1.94381937 eV
  | Sum of eigenvalues per atom                           :        -344.96742371 eV
  | Total energy (T->0) per atom                          :        -612.84797474 eV  <-- do not rely on this value for anything but (periodic) metals
  | Electronic free energy per atom                       :        -612.84797474 eV

  Self-consistency convergence accuracy:
  | Change of charge density      :  0.3921E+00
  | Change of sum of eigenvalues  : -0.1830E+02 eV
  | Change of total energy        :  0.1140E+01 eV

  End self-consistency iteration #     2       :  max(cpu_time)    wall_clock(cpu1)
  | Time for this iteration                    :        1.756 s           1.755 s
  | Charge density update                      :        0.568 s           0.566 s
  | Density mixing                             :        0.008 s           0.006 s
  | Hartree multipole update                   :        0.020 s           0.019 s
  | Hartree multipole summation                :        0.576 s           0.578 s
  | Integration                                :        0.576 s           0.576 s
  | Solution of K.-S. eqns.                    :        0.012 s           0.008 s
  | Total energy evaluation                    :        0.000 s           0.001 s

  Partial memory accounting:
  | Current value for overall tracked memory usage on task 0  :           0.783 MB
  | Peak value for overall tracked memory usage on task 0     :           1.976 MB after allocating wave
  | Largest tracked array allocation on task 0 so far         :           0.894 MB  when allocating gradient_basis_wave
  Note:  These values currently only include a subset of arrays which are explicitly tracked.
  The "true" memory usage will be greater.
------------------------------------------------------------

------------------------------------------------------------
          Begin self-consistency iteration #    3

  Date     :  20180216, Time     :  134331.891
------------------------------------------------------------
  Evaluating new KS density.
  Integration grid: deviation in total charge (<rho> - N_e) =   1.421085E-14
  Pulay mixing of updated and previous charge densities.

  Evaluating partitioned Hartree potential by multipole expansion.
  | Analytical far-field extrapolation by fixed multipoles:
  | Hartree multipole sum: apparent total charge =  -0.711940E-03
  Summing up the Hartree potential.
  Time summed over all CPUs for potential: real work        4.638 s, elapsed        4.657 s
  | RMS charge density error from multipole expansion :   0.328637E-01

  Integrating Hamiltonian matrix: batch-based integration.
  Time summed over all CPUs for integration: real work        4.505 s, elapsed        4.637 s

  Updating Kohn-Sham eigenvalues, eigenvectors, occupation numbers, and Fermi level.
  Solving generalized eigenproblem
  Updating Kohn-Sham eigenvalues and eigenfunctions.
  Solving real generalised eigenvalue problem by standard LAPACK (fast)

  Obtaining occupation numbers and chemical potential using ELSI.
  | Chemical potential (Fermi level):    -1.85775963eV
  Highest occupied state (VBM) at     -5.19364526 eV
  | Occupation number:      2.00000000

  Lowest unoccupied state (CBM) at    -1.11114567 eV
  | Occupation number:      0.00000000

  Overall HOMO-LUMO gap:      4.08249959 eV.

  Total energy components:
  | Sum of eigenvalues            :        -278.32147753 Ha       -7573.51273960 eV
  | XC energy correction          :         -67.43128075 Ha       -1834.89850789 eV
  | XC potential correction       :          86.67796881 Ha        2358.62753697 eV
  | Free-atom electrostatic energy:        -222.84334572 Ha       -6063.87596366 eV
  | Hartree energy correction     :         -13.55435866 Ha        -368.83286509 eV
  | vdW energy correction         :           0.00000000 Ha           0.00000000 eV
  | Entropy correction            :           0.00000000 Ha           0.00000000 eV
  | ---------------------------
  | Total energy                  :        -495.47249385 Ha      -13482.49253926 eV
  | Total energy, T -> 0          :        -495.47249385 Ha      -13482.49253926 eV  <-- do not rely on this value for anything but (periodic) metals
  | Electronic free energy        :        -495.47249385 Ha      -13482.49253926 eV

  Derived energy quantities:
  | Kinetic energy                :         494.16485274 Ha       13446.90981424 eV
  | Electrostatic energy          :        -922.20606583 Ha      -25094.50384561 eV
  | Energy correction for multipole
  | error in Hartree potential    :           0.08619457 Ha           2.34547350 eV
  | Sum of eigenvalues per atom                           :        -344.25057907 eV
  | Total energy (T->0) per atom                          :        -612.84056997 eV  <-- do not rely on this value for anything but (periodic) metals
  | Electronic free energy per atom                       :        -612.84056997 eV

  Self-consistency convergence accuracy:
  | Change of charge density      :  0.1706E+00
  | Change of sum of eigenvalues  :  0.1577E+02 eV
  | Change of total energy        :  0.1629E+00 eV

  End self-consistency iteration #     3       :  max(cpu_time)    wall_clock(cpu1)
  | Time for this iteration                    :        1.756 s           1.757 s
  | Charge density update                      :        0.568 s           0.566 s
  | Density mixing                             :        0.012 s           0.009 s
  | Hartree multipole update                   :        0.020 s           0.019 s
  | Hartree multipole summation                :        0.576 s           0.578 s
  | Integration                                :        0.576 s           0.575 s
  | Solution of K.-S. eqns.                    :        0.012 s           0.009 s
  | Total energy evaluation                    :        0.000 s           0.001 s

  Partial memory accounting:
  | Current value for overall tracked memory usage on task 0  :           0.783 MB
  | Peak value for overall tracked memory usage on task 0     :           1.976 MB after allocating wave
  | Largest tracked array allocation on task 0 so far         :           0.894 MB  when allocating gradient_basis_wave
  Note:  These values currently only include a subset of arrays which are explicitly tracked.
  The "true" memory usage will be greater.
------------------------------------------------------------

------------------------------------------------------------
          Begin self-consistency iteration #    4

  Date     :  20180216, Time     :  134333.649
------------------------------------------------------------
  Evaluating new KS density.
  Integration grid: deviation in total charge (<rho> - N_e) =   2.842171E-14
  Pulay mixing of updated and previous charge densities.

  Evaluating partitioned Hartree potential by multipole expansion.
  | Analytical far-field extrapolation by fixed multipoles:
  | Hartree multipole sum: apparent total charge =  -0.749840E-03
  Summing up the Hartree potential.
  Time summed over all CPUs for potential: real work        4.630 s, elapsed        4.653 s
  | RMS charge density error from multipole expansion :   0.354077E-01

  Integrating Hamiltonian matrix: batch-based integration.
  Time summed over all CPUs for integration: real work        4.567 s, elapsed        4.923 s

  Updating Kohn-Sham eigenvalues, eigenvectors, occupation numbers, and Fermi level.
  Solving generalized eigenproblem
  Updating Kohn-Sham eigenvalues and eigenfunctions.
  Solving real generalised eigenvalue problem by standard LAPACK (fast)

  Obtaining occupation numbers and chemical potential using ELSI.
  | Chemical potential (Fermi level):    -1.71825473eV
  Highest occupied state (VBM) at     -5.45043313 eV
  | Occupation number:      2.00000000

  Lowest unoccupied state (CBM) at    -1.02303759 eV
  | Occupation number:      0.00000000

  Overall HOMO-LUMO gap:      4.42739554 eV.

  Total energy components:
  | Sum of eigenvalues            :        -277.91913077 Ha       -7562.56432717 eV
[...]
   Van der Waals                 : -0.986733E-02 -0.722339E-02 -0.349517E-02
   ----------------------------------------------------------------
   Total forces(   3)            :  0.145499E-01  0.783403E-02 -0.400159E-01
  atom #    4
   Hellmann-Feynman              :  0.339797E-01  0.795416E-01 -0.188960E-02
   Ionic forces                  :  0.000000E+00  0.000000E+00  0.000000E+00
   Multipole                     : -0.113804E-01 -0.119613E+00  0.629887E-01
   Pulay + GGA                   : -0.411303E-01  0.468476E-01 -0.737648E-01
   Van der Waals                 : -0.503148E-02 -0.194128E-02  0.151217E-02
   ----------------------------------------------------------------
   Total forces(   4)            : -0.235625E-01  0.483500E-02 -0.111535E-01
  atom #    5
   Hellmann-Feynman              : -0.390952E-01  0.594504E-01  0.973116E-02
   Ionic forces                  :  0.000000E+00  0.000000E+00  0.000000E+00
   Multipole                     : -0.131309E+00 -0.979626E-01 -0.140009E-01
   Pulay + GGA                   :  0.128906E+00  0.635420E-01  0.766759E-02
   Van der Waals                 :  0.378574E-02 -0.128244E-02  0.102513E-02
   ----------------------------------------------------------------
   Total forces(   5)            : -0.377122E-01  0.237474E-01  0.442298E-02
  atom #    6
   Hellmann-Feynman              :  0.272682E-01  0.731277E-01 -0.556684E-02
   Ionic forces                  :  0.000000E+00  0.000000E+00  0.000000E+00
   Multipole                     :  0.282878E-02 -0.102607E+00 -0.706135E-01
   Pulay + GGA                   : -0.472363E-01  0.480399E-01  0.776882E-01
   Van der Waals                 : -0.449005E-02 -0.369758E-02 -0.462393E-02
   ----------------------------------------------------------------
   Total forces(   6)            : -0.216294E-01  0.148628E-01 -0.311606E-02
  atom #    7
   Hellmann-Feynman              : -0.645353E+00 -0.968684E+00  0.171460E+01
   Ionic forces                  :  0.000000E+00  0.000000E+00  0.000000E+00
   Multipole                     : -0.962484E-01 -0.393090E+00  0.216082E+00
   Pulay + GGA                   :  0.718958E+00  0.134446E+01 -0.191727E+01
   Van der Waals                 :  0.105458E-01  0.402791E-02 -0.538699E-02
   ----------------------------------------------------------------
   Total forces(   7)            : -0.120978E-01 -0.132841E-01  0.802691E-02
  atom #    8
   Hellmann-Feynman              :  0.130085E+01  0.185813E+01 -0.362986E+00
   Ionic forces                  :  0.000000E+00  0.000000E+00  0.000000E+00
   Multipole                     : -0.723245E-01  0.249677E+00 -0.109209E+00
   Pulay + GGA                   : -0.122018E+01 -0.212776E+01  0.467284E+00
   Van der Waals                 :  0.479348E-02 -0.101495E-01 -0.839054E-03
   ----------------------------------------------------------------
   Total forces(   8)            :  0.131445E-01 -0.301034E-01 -0.575044E-02
  atom #    9
   Hellmann-Feynman              : -0.315588E+00 -0.467780E+00  0.624707E-02
   Ionic forces                  :  0.000000E+00  0.000000E+00  0.000000E+00
   Multipole                     : -0.172037E+00  0.590506E+00  0.531753E+00
   Pulay + GGA                   :  0.512827E+00 -0.148394E+00 -0.554696E+00
   Van der Waals                 : -0.124693E-02  0.619890E-02  0.133183E-01
   ----------------------------------------------------------------
   Total forces(   9)            :  0.239555E-01 -0.194683E-01 -0.337782E-02
  atom #   10
   Hellmann-Feynman              : -0.159961E+01  0.554761E+00  0.583120E-01
   Ionic forces                  :  0.000000E+00  0.000000E+00  0.000000E+00
   Multipole                     : -0.221901E+00 -0.118726E+00  0.180747E-01
   Pulay + GGA                   :  0.184060E+01 -0.465251E+00 -0.593130E-01
   Van der Waals                 : -0.121088E-01 -0.875493E-02 -0.891212E-02
   ----------------------------------------------------------------
   Total forces(  10)            :  0.697617E-02 -0.379713E-01  0.816160E-02
  atom #   11
   Hellmann-Feynman              :  0.277752E+01 -0.134076E+02  0.991778E-01
   Ionic forces                  :  0.000000E+00  0.000000E+00  0.000000E+00
   Multipole                     :  0.501675E+00 -0.101213E+01  0.252712E-01
   Pulay + GGA                   : -0.326081E+01  0.143898E+02 -0.907251E-01
   Van der Waals                 : -0.243983E-01  0.223619E-02  0.198701E-02
   ----------------------------------------------------------------
   Total forces(  11)            : -0.601436E-02 -0.277679E-01  0.357110E-01
  atom #   12
   Hellmann-Feynman              : -0.418952E-01 -0.111513E+00  0.348607E-01
   Ionic forces                  :  0.000000E+00  0.000000E+00  0.000000E+00
   Multipole                     :  0.784265E-01 -0.116295E+00 -0.291673E-02
   Pulay + GGA                   : -0.483767E-01  0.199176E+00  0.661098E-02
   Van der Waals                 :  0.992671E-02  0.103744E-01  0.477798E-02
   ----------------------------------------------------------------
   Total forces(  12)            : -0.191859E-02 -0.182585E-01  0.433330E-01
  atom #   13
   Hellmann-Feynman              :  0.123665E+00 -0.365170E-01  0.287907E-01
   Ionic forces                  :  0.000000E+00  0.000000E+00  0.000000E+00
   Multipole                     : -0.510480E-01  0.693507E-01 -0.133494E+00
   Pulay + GGA                   : -0.607618E-01 -0.798305E-01  0.984904E-01
   Van der Waals                 :  0.585757E-02  0.243233E-02 -0.108364E-01
   ----------------------------------------------------------------
   Total forces(  13)            :  0.177125E-01 -0.445644E-01 -0.170495E-01
  atom #   14
   Hellmann-Feynman              :  0.437472E-01 -0.112539E-01 -0.289350E-02
   Ionic forces                  :  0.000000E+00  0.000000E+00  0.000000E+00
   Multipole                     : -0.110335E+00  0.614421E-01  0.298702E-01
   Pulay + GGA                   :  0.870500E-01 -0.763072E-01 -0.364496E-01
   Van der Waals                 :  0.559671E-02  0.112394E-01  0.990192E-02
   ----------------------------------------------------------------
   Total forces(  14)            :  0.260591E-01 -0.148796E-01  0.429013E-03
  atom #   15
   Hellmann-Feynman              :  0.601441E-01 -0.444260E-01 -0.340019E-01
   Ionic forces                  :  0.000000E+00  0.000000E+00  0.000000E+00
   Multipole                     :  0.162652E-03 -0.643441E-02  0.133450E+00
   Pulay + GGA                   : -0.300412E-01  0.345173E-01 -0.993050E-01
   Van der Waals                 :  0.248457E-03  0.257644E-03 -0.261606E-02
   ----------------------------------------------------------------
   Total forces(  15)            :  0.305140E-01 -0.160855E-01 -0.247291E-02
  atom #   16
   Hellmann-Feynman              :  0.988642E-01 -0.801341E-01 -0.118656E+00
   Ionic forces                  :  0.000000E+00  0.000000E+00  0.000000E+00
   Multipole                     :  0.179234E-01  0.119844E+00  0.503873E-01
   Pulay + GGA                   : -0.952510E-01 -0.574252E-01  0.516281E-01
   Van der Waals                 : -0.101206E-01  0.490279E-02  0.787518E-02
   ----------------------------------------------------------------
   Total forces(  16)            :  0.114159E-01 -0.128128E-01 -0.876516E-02
  atom #   17
   Hellmann-Feynman              : -0.169704E+01 -0.140048E+01  0.953893E-01
   Ionic forces                  :  0.000000E+00  0.000000E+00  0.000000E+00
   Multipole                     :  0.678903E+00  0.445282E+00 -0.107602E+00
   Pulay + GGA                   :  0.100485E+01  0.951986E+00  0.619573E-02
   Van der Waals                 :  0.613138E-02 -0.759205E-02 -0.678849E-03
   ----------------------------------------------------------------
   Total forces(  17)            : -0.715153E-02 -0.108056E-01 -0.669613E-02
  atom #   18
   Hellmann-Feynman              :  0.268102E+01 -0.118443E+01  0.222621E+00
   Ionic forces                  :  0.000000E+00  0.000000E+00  0.000000E+00
   Multipole                     :  0.487894E+00 -0.679320E-02  0.270970E-01
   Pulay + GGA                   : -0.315663E+01  0.122254E+01 -0.252721E+00
   Van der Waals                 : -0.104604E-01  0.293244E-02  0.883143E-03
   ----------------------------------------------------------------
   Total forces(  18)            :  0.182880E-02  0.342491E-01 -0.211937E-02
  atom #   19
   Hellmann-Feynman              : -0.459147E-01  0.780848E-01  0.273588E-01
   Ionic forces                  :  0.000000E+00  0.000000E+00  0.000000E+00
   Multipole                     : -0.470130E-01  0.125806E+00 -0.750458E-02
   Pulay + GGA                   :  0.622401E-01 -0.217778E+00  0.107640E-01
   Van der Waals                 :  0.910254E-02 -0.320325E-02 -0.327248E-02
   ----------------------------------------------------------------
   Total forces(  19)            : -0.215850E-01 -0.170896E-01  0.273458E-01
  atom #   20
   Hellmann-Feynman              :  0.146917E-01  0.887404E-01  0.256037E-02
   Ionic forces                  :  0.000000E+00  0.000000E+00  0.000000E+00
   Multipole                     :  0.727062E-01 -0.725290E-01  0.102971E+00
   Pulay + GGA                   : -0.531342E-01  0.233384E-01 -0.105331E+00
   Van der Waals                 :  0.548008E-02  0.360164E-02  0.359615E-02
   ----------------------------------------------------------------
   Total forces(  20)            :  0.397437E-01  0.431514E-01  0.379693E-02
  atom #   21
   Hellmann-Feynman              : -0.214099E-01  0.919429E-01 -0.220751E-01
   Ionic forces                  :  0.000000E+00  0.000000E+00  0.000000E+00
   Multipole                     :  0.833869E-01 -0.684806E-01 -0.905677E-01
   Pulay + GGA                   : -0.689748E-01  0.221221E-01  0.972985E-01
   Van der Waals                 :  0.821869E-02  0.353500E-02 -0.335092E-02
   ----------------------------------------------------------------
   Total forces(  21)            :  0.122088E-02  0.491194E-01 -0.186952E-01
  atom #   22
   Hellmann-Feynman              : -0.167330E+00  0.112366E+00 -0.160565E-01
   Ionic forces                  :  0.000000E+00  0.000000E+00  0.000000E+00
   Multipole                     :  0.169589E+00  0.519728E-01  0.165556E-01
   Pulay + GGA                   : -0.176906E-01 -0.104871E+00 -0.149616E-02
   Van der Waals                 : -0.166241E-02 -0.343860E-02  0.235614E-03
   ----------------------------------------------------------------
   Total forces(  22)            : -0.170943E-01  0.560290E-01 -0.761408E-03

  Timings for VdW correction (Tkatchenko-Scheffler 2009 or later):
  | CPU time:        0.140 s, Wall clock time:        0.145 s.
  Removing unitary transformations (pure translations, rotations) from forces on atoms.
  Atomic forces before filtering:
  | Net force on center of mass :  -0.932225E-03  0.269429E-02 -0.286035E-02 eV/A
  | Net torque on center of mass:  -0.464166E-02 -0.321087E-02  0.125923E-01 eV
  Atomic forces after filtering:
  | Net force on center of mass :   0.836279E-17 -0.223008E-16  0.139380E-17 eV/A
  | Net torque on center of mass:  -0.169640E-16  0.704376E-16 -0.737566E-16 eV

  Energy and forces in a compact form:
  | Total energy uncorrected      :         -0.134825339292204E+05 eV
  | Total energy corrected        :         -0.134825339292204E+05 eV  <-- do not rely on this value for anything but (periodic) metals
  | Electronic free energy        :         -0.134825339292204E+05 eV
  Total atomic forces (unitary forces cleaned) [eV/Ang]:
  |   1         -0.296099230025405E-01          0.258938096547692E-01         -0.209599836050917E-02
  |   2         -0.982961459378734E-02          0.623737091607876E-02         -0.118129405652684E-01
  |   3          0.145758164462888E-01          0.797083756573119E-02         -0.397387862373123E-01
  |   4         -0.236856633679415E-01          0.483837286671118E-02         -0.111714879502663E-01
  |   5         -0.378445034465503E-01          0.239305814699032E-01          0.451022926564989E-02
  |   6         -0.218227805161851E-01          0.150168335361908E-01         -0.313296396024589E-02
  |   7         -0.121020110730983E-01         -0.133285967640582E-01          0.814322750320910E-02
  |   8          0.132202508333504E-01         -0.301958139348168E-01         -0.555418520664322E-02
  |   9          0.241409486630082E-01         -0.196401059484192E-01         -0.308089598594153E-02
  |  10          0.702249211962891E-02         -0.381618908386014E-01          0.825242749338231E-02
  |  11         -0.604550316928650E-02         -0.279777188749823E-01          0.356812830906136E-01
  |  12         -0.197480383165450E-02         -0.183446868248983E-01          0.433494706153951E-01
  |  13          0.177830168166791E-01         -0.445598046746775E-01         -0.167969038487427E-01
  |  14          0.262563306898961E-01         -0.149744761176680E-01          0.792804299576007E-03
  |  15          0.307092469172837E-01         -0.163559620627283E-01         -0.222709079905631E-02
  |  16          0.116612287143430E-01         -0.130182274354643E-01         -0.840691001373263E-02
  |  17         -0.704417222676217E-02         -0.110617326852031E-01         -0.656332997613995E-02
  |  18          0.191048528683159E-02          0.338956628638411E-01         -0.208611633040652E-02
  |  19         -0.214152897528333E-01         -0.173283289302495E-01          0.275768970305294E-01
  |  20          0.398216111772396E-01          0.427099266036472E-01          0.376712264371642E-02
  |  21          0.122637765558718E-02          0.488277375658024E-01         -0.187275695239507E-01
  |  22         -0.169535403394971E-01          0.556262120490920E-01         -0.678283183856298E-03

  ------------------------------------ 
  Start decomposition of the XC Energy 
  ------------------------------------ 
  X and C from original XC functional choice 
  Hartree-Fock Energy :          0.000000000 Ha              0.000000000 eV
  X Energy            :        -64.850382177 Ha          -1764.668684379 eV
  C Energy            :         -2.589980010 Ha            -70.476941907 eV
  Total XC Energy     :        -67.440362187 Ha          -1835.145626285 eV
  ------------------------------------ 
  LDA X and C from self-consistent density 
  X Energy LDA        :        -58.833775754 Ha          -1600.948493618 eV
  C Energy LDA        :         -5.050747485 Ha           -137.437831825 eV
  ------------------------------------ 
  End decomposition of the XC Energy 
  ------------------------------------ 

------------------------------------------------------------

------------------------------------------------------------------------------
  Final output of selected total energy values:

  The following output summarizes some interesting total energy values
  at the end of a run (AFTER all relaxation, molecular dynamics, etc.).

  | Total energy of the DFT / Hartree-Fock s.c.f. calculation      :         -13482.533929220 eV
  | Final zero-broadening corrected energy (caution - metals only) :         -13482.533929220 eV
  | For reference only, the value of 1 Hartree used in FHI-aims is :             27.211384500 eV

  Before relying on these values, please be sure to understand exactly which
  total energy value is referred to by a given number. Different objects may
  all carry the same name 'total energy'. Definitions:

  Total energy of the DFT / Hartree-Fock s.c.f. calculation:
  | Note that this energy does not include ANY quantities calculated after the
  | s.c.f. cycle, in particular not ANY RPA, MP2, etc. many-body perturbation terms.

  Final zero-broadening corrected energy:
  | For metallic systems only, a broadening of the occupation numbers at the Fermi
  | level can be extrapolated back to zero broadening by an electron-gas inspired
  | formula. For all systems that are not real metals, this value can be
  | meaningless and should be avoided.

------------------------------------------------------------------------------
  Methods described in the following list of references were used in this FHI-aims run.
  If you publish the results, please make sure to cite these reference if they apply.
  FHI-aims is an academic code, and for our developers (often, Ph.D. students
  and postdocs), scientific credit in the community is essential.
  Thank you for helping us!

  For any use of FHI-aims, please cite:

    Volker Blum, Ralf Gehrke, Felix Hanke, Paula Havu, Ville Havu,
    Xinguo Ren, Karsten Reuter, and Matthias Scheffler
    'Ab initio molecular simulations with numeric atom-centered orbitals'
    Computer Physics Communications 180, 2175-2196 (2009)
    http://dx.doi.org/10.1016/j.cpc.2009.06.022


  For the real-space grid partitioning and parallelization used in this calculation, please cite:

    Ville Havu, Volker Blum, Paula Havu, and Matthias Scheffler,
    'Efficient O(N) integration for all-electron electronic structure calculation'
    'using numerically tabulated basis functions'
    Journal of Computational Physics 228, 8367-8379 (2009).
    http://dx.doi.org/10.1016/j.jcp.2009.08.008

  Of course, there are many other important community references, e.g., those cited in the
  above references. Our list is limited to references that describe implementations in the
  FHI-aims code. The reason is purely practical (length of this list) - please credit others as well.

------------------------------------------------------------
          Leaving FHI-aims.
          Date     :  20180216, Time     :  134356.430

          Computational steps:
          | Number of self-consistency cycles          :           14
          | Number of SCF (re)initializations          :            1

          Detailed time accounting                     :  max(cpu_time)    wall_clock(cpu1)
          | Total time                                 :       29.796 s          29.817 s
          | Preparation time                           :        0.304 s           0.305 s
          | Boundary condition initalization           :        0.000 s           0.000 s
          | Grid partitioning                          :        0.172 s           0.171 s
          | Preloading free-atom quantities on grid    :        0.012 s           0.008 s
          | Free-atom superposition energy             :        0.064 s           0.065 s
          | Total time for integrations                :        8.920 s           8.910 s
          | Total time for solution of K.-S. equations :        0.192 s           0.165 s
          | Total time for density & force components  :        9.300 s           9.284 s
          | Total time for mixing                      :        0.324 s           0.308 s
          | Total time for Hartree multipole update    :        0.280 s           0.265 s
          | Total time for Hartree multipole sum       :        9.776 s           9.768 s
          | Total time for total energy evaluation     :        0.020 s           0.018 s
          | Total time for vdW correction              :        0.140 s           0.145 s

          Partial memory accounting:
          | Residual value for overall tracked memory usage across tasks :           0.000 MB (should be 0.000 MB)
          | Peak values for overall tracked memory usage (after allocating hessian_basis_wave):
          |   Minimum:        3.996 MB (on task 6)
          |   Maximum:        4.073 MB (on task 1)
          |   Average:        4.040 MB
          | Largest tracked array allocation (hessian_basis_wave):
          |   Minimum:        1.741 MB (on task 6)
          |   Maximum:        1.788 MB (on task 1)
          |   Average:        1.768 MB
          Note:  These values currently only include a subset of arrays which are explicitly tracked.
          The "true" memory usage will be greater.

          Have a nice day.
------------------------------------------------------------
