  MPI-parallelism will be employed.
------------------------------------------------------------
          Invoking FHI-aims ...
          Version 180101-
          Git rev. (modified): fa29f3a Merge branch master of fhiaims.rzberlin.mp[...]
          Compiled on 2018/01/19 at 14:47:46 on host theobook132.

          When using FHI-aims, please cite the following reference:

          Volker Blum, Ralf Gehrke, Felix Hanke, Paula Havu,
          Ville Havu, Xinguo Ren, Karsten Reuter, and Matthias Scheffler,
          'Ab Initio Molecular Simulations with Numeric Atom-Centered Orbitals',
          Computer Physics Communications 180, 2175-2196 (2009)

          For any questions about FHI-aims, please visit the aimsclub website
          with its forums and wiki. Contributions to both the forums and the
          wiki are warmly encouraged - they are for you, and everyone is welcome there.

------------------------------------------------------------



  Date     :  20180215, Time     :  214230.574
  Time zero on CPU 1             :   0.480000000000000E-01  s.
  Internal wall clock time zero  :           287962950.574  s.

  FHI-aims created a unique identifier for this run for later identification
  aims_uuid : 7C5744FB-65E5-4452-A0A9-A95C59F0D270

  Using        8 parallel tasks.
  Task        0 on host theobook132 reporting.
  Task        1 on host theobook132 reporting.
  Task        2 on host theobook132 reporting.
  Task        3 on host theobook132 reporting.
  Task        4 on host theobook132 reporting.
  Task        5 on host theobook132 reporting.
  Task        6 on host theobook132 reporting.
  Task        7 on host theobook132 reporting.

  Performing system and environment tests:
  *** Environment variable OMP_NUM_THREADS is not set
  *** For performance reasons you might want to set it to 1
  | Stacksize not measured: no C compiler
  | Checking for scalapack...
  | No scalapack compiled in.

  Obtaining array dimensions for all initial allocations:
  
  -----------------------------------------------------------------------
  Parsing control.in (first pass over file, find array dimensions only).
  The contents of control.in will be repeated verbatim below
  unless switched off by setting 'verbatim_writeout .false.' .
  in the first line of control.in .
  -----------------------------------------------------------------------
  
  ################################################################################
  #
  #		Control.in generated by mkcontrol
  #
  ################################################################################
  xc			pbe
  vdw_correction_hirshfeld
  relativistic		none
  sc_accuracy_rho		1E-5
  sc_accuracy_eev		1E-3
  sc_accuracy_etot	1E-6
  sc_iter_limit		1000	
  
  compute_forces .true.
  final_forces_cleaned .true.
  
  ################################################################################
  #
  #  FHI-aims code project
  #  VB, Fritz-Haber Institut, 2009
  #
  #  Suggested "light" defaults for H atom (to be pasted into control.in file)
  #  Be sure to double-check any results obtained with these settings for post-processing,
  #  e.g., with the "tight" defaults and larger basis sets.
  #
  ################################################################################
    species        H
  #     global species definitions
      nucleus             1
      mass                1.00794
  #
      l_hartree           4
  #
      cut_pot             3.5  1.5  1.0
      basis_dep_cutoff    1e-4
  #
      radial_base         24 5.0
      radial_multiplier   1
      angular_grids       specified
        division   0.2421   50
        division   0.3822  110
        division   0.4799  194
        division   0.5341  302
  #      division   0.5626  434
  #      division   0.5922  590
  #      division   0.6542  770
  #      division   0.6868 1202
  #      outer_grid  770
        outer_grid  302
  ################################################################################
  #
  #  Definition of "minimal" basis
  #
  ################################################################################
  #     valence basis states
      valence      1  s   1.
  #     ion occupancy
      ion_occ      1  s   0.5
  ################################################################################
  #
  #  Suggested additional basis functions. For production calculations,
  #  uncomment them one after another (the most important basis functions are
  #  listed first).
  #
  #  Basis constructed for dimers: 0.5 A, 0.7 A, 1.0 A, 1.5 A, 2.5 A
  #
  ################################################################################
  #  "First tier" - improvements: -1014.90 meV to -62.69 meV
       hydro 2 s 2.1
       hydro 2 p 3.5
  #  "Second tier" - improvements: -12.89 meV to -1.83 meV
  #     hydro 1 s 0.85
  #     hydro 2 p 3.7
  #     hydro 2 s 1.2
  #     hydro 3 d 7
  #  "Third tier" - improvements: -0.25 meV to -0.12 meV
  #     hydro 4 f 11.2
  #     hydro 3 p 4.8
  #     hydro 4 d 9
  #     hydro 3 s 3.2
  
  ################################################################################
  #
  #  FHI-aims code project
  #  VB, Fritz-Haber Institut, 2009
  #
  #  Suggested "light" defaults for C atom (to be pasted into control.in file)
  #  Be sure to double-check any results obtained with these settings forpost-processing,
  #  e.g., with the "tight" defaults and larger basis sets.
  #
  ################################################################################
    species        C
  #     global species definitions
      nucleus             6
      mass                12.0107
  #
      l_hartree           4
  #
      cut_pot             3.5  1.5  1.0
      basis_dep_cutoff    1e-4
  #
      radial_base         34 5.0
      radial_multiplier   1
      angular_grids specified
        division   0.3326   50
        division   0.5710  110
        division   0.7727  194
        division   0.8772  302
  #      division   0.9334  434
  #      division   0.9625  590
  #      division   0.9924  770
  #      division   1.0230  974
  #      division   1.4589 1202
  #     outer_grid  974
       outer_grid 302
  ################################################################################
  #
  #  Definition of "minimal" basis
  #
  ################################################################################
  #     valence basis states
      valence      2  s   2.
      valence      2  p   2.
  #     ion occupancy
      ion_occ      2  s   1.
      ion_occ      2  p   1.
  ################################################################################
  #
  #  Suggested additional basis functions. For production calculations,
  #  uncomment them one after another (the most important basis functions are
  #  listed first).
  #
  #  Constructed for dimers: 1.0 A, 1.25 A, 1.5 A, 2.0 A, 3.0 A
  #
  ################################################################################
  #  "First tier" - improvements: -1214.57 meV to -155.61 meV
       hydro 2 p 1.7
       hydro 3 d 6
       hydro 2 s 4.9
  #  "Second tier" - improvements: -67.75 meV to -5.23 meV
  #     hydro 4 f 9.8
  #     hydro 3 p 5.2
  #     hydro 3 s 4.3
  #     hydro 5 g 14.4
  #     hydro 3 d 6.2
  #  "Third tier" - improvements: -2.43 meV to -0.60 meV
  #     hydro 2 p 5.6
  #     hydro 2 s 1.4
  #     hydro 3 d 4.9
  #     hydro 4 f 11.2
  #  "Fourth tier" - improvements: -0.39 meV to -0.18 meV
  #     hydro 2 p 2.1
  #     hydro 5 g 16.4
  #     hydro 4 d 13.2
  #     hydro 3 s 13.6
  #     hydro 4 f 17.6
  #  Further basis functions - improvements: -0.08 meV and below
  #     hydro 3 s 2
  #     hydro 3 p 6
  #     hydro 4 d 20
  
  -----------------------------------------------------------------------
  Completed first pass over input file control.in .
  -----------------------------------------------------------------------
  
  
  -----------------------------------------------------------------------
  Parsing geometry.in (first pass over file, find array dimensions only).
  The contents of geometry.in will be repeated verbatim below
  unless switched off by setting 'verbatim_writeout .false.' .
  in the first line of geometry.in .
  -----------------------------------------------------------------------
  
  #=======================================#
  # iterations/iteration0037/aims-chain-node-0.13582/geometry.in
  #=======================================#
  atom -1.8566498142789203 -0.6393383235837683 0.0001337781821017 C
  atom -0.6313790989407937 0.2243686413113761 -0.0105581120529291 C
  atom 0.6313790953267732 -0.2243686359866927 -0.0105583174340178 C
  atom 1.8566498142792773 0.6393383232889734 0.0001334691084468 C
  atom -1.6046229024469147 -1.7003625631413877 -0.1378437621686441 H
  atom -2.5595486115571200 -0.3481862767652611 -0.7962693067784842 H
  atom -2.4052308300141978 -0.5428746938578478 0.9517630227006582 H
  atom -0.7997013717660969 1.3091020678540781 -0.0072246005663705 H
  atom 0.7997013685827459 -1.3091020634049417 -0.0072250979735197 H
  atom 1.6046228582936124 1.7003626103537044 -0.1378436261116986 H
  atom 2.4052311425535757 0.5428743660500540 0.9517624999745798 H
  atom 2.5595483499680571 0.3481865478817246 -0.7962699468801261 H
  
  -----------------------------------------------------------------------
  Completed first pass over input file geometry.in .
  -----------------------------------------------------------------------
  

  Basic array size parameters:
  | Number of species                 :        2
  | Number of atoms                   :       12
  | Max. basis fn. angular momentum   :        2
  | Max. atomic/ionic basis occupied n:        2
  | Max. number of basis fn. types    :        2
  | Max. radial fns per species/type  :        3
  | Max. logarithmic grid size        :     1277
  | Max. radial integration grid size :       34
  | Max. angular integration grid size:      302
  | Max. angular grid division number :        8
  | Radial grid for Hartree potential :     1277
  | Number of spin channels           :        1

------------------------------------------------------------
          Reading file control.in.
------------------------------------------------------------
  XC: Using PBE gradient-corrected functionals.
  Non-relativistic treatment of kinetic energy.
  Convergence accuracy of self-consistent charge density:  0.1000E-04
  Convergence accuracy of sum of eigenvalues:  0.1000E-02
  Convergence accuracy of total energy:  0.1000E-05
  Maximum number of s.-c. iterations  :  1000
  Forces will be computed.
  Cleaning forces before final output.
 
  Reading configuration options for species H                   .
  | Found nuclear charge :   1.0000
  | Found atomic mass :    1.00794000000000      amu
  | Found l_max for Hartree potential  :   4
  | Found cutoff potl. onset [A], width [A], scale factor :    3.50000    1.50000    1.00000
  | Threshold for basis-dependent cutoff potential is   0.100000E-03
  | Found data for basic radial integration grid :    24 points, outermost radius =    5.000 A
  | Found multiplier for basic radial grid :   1
  | Found angular grid specification: user-specified.
  | Specified grid contains     5 separate shells.
  | Check grid settings after all constraints further below.
  | Found free-atom valence shell :  1 s   1.000
  | No ionic wave fns used. Skipping ion_occ.
  | Found hydrogenic basis function :  2 s   2.100
  | Found hydrogenic basis function :  2 p   3.500
  Species H                   : Missing cutoff potential type.
  Defaulting to exp(1/x)/(1-x)^2 type cutoff potential.
  Species H : No 'logarithmic' tag. Using default grid for free atom:
  | Default logarithmic grid data [bohr] : 0.1000E-03 0.1000E+03 0.1012E+01
  Species H : On-site basis accuracy parameter (for Gram-Schmidt orthonormalisation) not specified.
  Using default value basis_acc =  0.1000000E-03.
  Species H                   : Using default innermost maximum threshold i_radial=  2 for radial functions.
  Species H                   : Default cutoff onset for free atom density etc. : 0.35000000E+01 AA.
  Species H                   : Basic radial grid will be enhanced according to radial_multiplier =   1, to contain    24 grid points.
 
  Reading configuration options for species C                   .
  | Found nuclear charge :   6.0000
  | Found atomic mass :    12.0107000000000      amu
  | Found l_max for Hartree potential  :   4
  | Found cutoff potl. onset [A], width [A], scale factor :    3.50000    1.50000    1.00000
  | Threshold for basis-dependent cutoff potential is   0.100000E-03
  | Found data for basic radial integration grid :    34 points, outermost radius =    5.000 A
  | Found multiplier for basic radial grid :   1
  | Found angular grid specification: user-specified.
  | Specified grid contains     5 separate shells.
  | Check grid settings after all constraints further below.
  | Found free-atom valence shell :  2 s   2.000
  | Found free-atom valence shell :  2 p   2.000
  | No ionic wave fns used. Skipping ion_occ.
  | No ionic wave fns used. Skipping ion_occ.
  | Found hydrogenic basis function :  2 p   1.700
  | Found hydrogenic basis function :  3 d   6.000
  | Found hydrogenic basis function :  2 s   4.900
  Species C                   : Missing cutoff potential type.
  Defaulting to exp(1/x)/(1-x)^2 type cutoff potential.
  Species C : No 'logarithmic' tag. Using default grid for free atom:
  | Default logarithmic grid data [bohr] : 0.1000E-03 0.1000E+03 0.1012E+01
  Species C : On-site basis accuracy parameter (for Gram-Schmidt orthonormalisation) not specified.
  Using default value basis_acc =  0.1000000E-03.
  Species C                   : Using default innermost maximum threshold i_radial=  2 for radial functions.
  Species C                   : Default cutoff onset for free atom density etc. : 0.35000000E+01 AA.
  Species C                   : Basic radial grid will be enhanced according to radial_multiplier =   1, to contain    34 grid points.
 
  Finished reading input file 'control.in'. Consistency checks are next.
 
  MPI_IN_PLACE appears to work with this MPI implementation.
  | Keeping use_mpi_in_place .true. (see manual).
  Target number of points in a grid batch is not set. Defaulting to  100
  Method for grid partitioning is not set. Defaulting to parallel hash+maxmin partitioning.
  Batch size limit is not set. Defaulting to    200
  By default, will store active basis functions for each batch.
  If in need of memory, prune_basis_once .false. can be used to disable this option.
  communication_type for Hartree potential was not specified.
  Defaulting to calc_hartree .
  Defaulting to Pulay charge density mixer.
  Pulay mixer: Number of relevant iterations not set.
  Defaulting to    8 iterations.
  Pulay mixer: Number of initial linear mixing iterations not set.
  Defaulting to    0 iterations.
  Work space size for distributed Hartree potential not set.
  Defaulting to   0.200000E+03 MB.
  Mixing parameter for charge density mixing has not been set.
  Using default: charge_mix_param =     0.0500.
  The mixing parameter will be adjusted in iteration number     2 of the first full s.c.f. cycle only.
  Algorithm-dependent basis array size parameters:
  | n_max_pulay                         :        8
  Presetting        40 iterations before the initial mixing cycle
  is restarted anyway using the sc_init_iter criterion / keyword.
  Presetting a factor      1.000 between actual scf density residual
  and density convergence criterion sc_accuracy_rho below which sc_init_iter
  takes no effect.
  Geometry relaxation not requested: no relaxation will be performed.
  Force calculation: scf convergence accuracy of forces not set.
  Defaulting to 'sc_accuracy_forces not_checked'.
  Handling of forces: Unphysical translation and rotation will be removed from forces.
  No accuracy limit for integral partition fn. given. Defaulting to  0.1000E-14.
  No threshold value for u(r) in integrations given. Defaulting to  0.1000E-05.
  No occupation type (smearing scheme) given. Defaulting to Gaussian broadening, width =  0.1000E-01 eV.
  The width will be adjusted in iteration number     2 of the first full s.c.f. cycle only.
  S.C.F. convergence parameters will be adjusted in iteration number     2 of the first full s.c.f. cycle only.
  No accuracy for occupation numbers given. Defaulting to  0.1000E-12.
  No threshold value for occupation numbers given. Defaulting to  0.0000E+00.
  No accuracy for fermi level given. Defaulting to  0.1000E-19.
  Maximum # of iterations to find E_F not set. Defaulting to  200.
  Preferred method for the eigenvalue solver ('KS_method') not specified in 'control.in'.
  Calling BLACS routine to test compilation state
  The best choice would be 'elsi', but your version of FHI-aims is compiled without ScaLAPACK support.
  Defaulting to 'lapack_fast' instead (serial solution, time will not improve with more CPUs).
  Will not use alltoall communication since running on < 1024 CPUs.
  Threshold for basis singularities not set.
  Default threshold for basis singularities:  0.1000E-04
  partition_type (choice of integration weights) for integrals was not specified.
  | Using a version of the partition function of Stratmann and coworkers ('stratmann_smoother').
  | At each grid point, the set of atoms used to build the partition table is smoothly restricted to
  | only those atoms whose free-atom density would be non-zero at that grid point.
  Partitioning for Hartree potential was not defined. Using partition_type for integrals.
  | Adjusted default value of keyword multip_moments_threshold to:       0.10000000E-11
  | This value may affect high angular momentum components of the Hartree potential in periodic systems.
  Spin handling was not defined in control.in. Defaulting to unpolarized case.
  No q(lm)/r^(l+1) cutoff set for long-range Hartree potential.
  | Using default value of  0.100000E-09 .
  | Verify using the multipole_threshold keyword.
  Defaulting to new monopole extrapolation.
  Density update method: automatic selection selected.
------------------------------------------------------------


------------------------------------------------------------
          Reading geometry description geometry.in.
------------------------------------------------------------
  Input structure read successfully.
  The structure contains       12 atoms,  and a total of         32.000 electrons.

  Input geometry:
  | No unit cell requested.
  | Atomic structure:
  |       Atom                x [A]            y [A]            z [A]
  |    1: Species C            -1.85664981       -0.63933832        0.00013378
  |    2: Species C            -0.63137910        0.22436864       -0.01055811
  |    3: Species C             0.63137910       -0.22436864       -0.01055832
  |    4: Species C             1.85664981        0.63933832        0.00013347
  |    5: Species H            -1.60462290       -1.70036256       -0.13784376
  |    6: Species H            -2.55954861       -0.34818628       -0.79626931
  |    7: Species H            -2.40523083       -0.54287469        0.95176302
  |    8: Species H            -0.79970137        1.30910207       -0.00722460
  |    9: Species H             0.79970137       -1.30910206       -0.00722510
  |   10: Species H             1.60462286        1.70036261       -0.13784363
  |   11: Species H             2.40523114        0.54287437        0.95176250
  |   12: Species H             2.55954835        0.34818655       -0.79626995
  |

  | The smallest distance between any two atoms is         1.09772041 AA.
  |
  | The first atom of this pair is atom number                      2 .
  | The second atom of this pair is atom number                     8 .

  Number of empty states per atom not set in control.in - providing a guess from actual geometry.
  | Total number of empty states used during s.c.f. cycle:       24
  If you use a very high smearing, use empty_states (per atom!) in control.in to increase this value.

  Structure-dependent array size parameters: 
  | Maximum number of distinct radial functions  :        9
  | Maximum number of basis functions            :       96
  | Number of Kohn-Sham states (occupied + empty):       40
------------------------------------------------------------

------------------------------------------------------------
          Preparing all fixed parts of the calculation.
------------------------------------------------------------
  Determining machine precision:
    2.225073858507201E-308
  Setting up grids for atomic and cluster calculations.

  Creating wave function, potential, and density for free atoms.

  Species: H

  List of occupied orbitals and eigenvalues:
    n    l              occ      energy [Ha]    energy [eV]
    1    0           1.0000        -0.237589        -6.4651


  Species: C

  List of occupied orbitals and eigenvalues:
    n    l              occ      energy [Ha]    energy [eV]
    1    0           2.0000       -10.038835      -273.1706
    2    0           2.0000        -0.502696       -13.6791
    2    1           2.0000        -0.191971        -5.2238

  Creating fixed part of basis set: Ionic, confined, hydrogenic.
 
  H                    hydrogenic:
 
  List of hydrogenic basis orbitals: 
    n    l      effective z      eigenvalue [eV]  inner max. [A]     outer max. [A]     outer radius [A]   
    2    0         2.100000       -14.9728           0.193243           1.317208           4.583499
    2    1         3.500000       -41.6669           0.602369           0.602369           3.723403
 
 
  C                    hydrogenic:
 
  List of hydrogenic basis orbitals: 
    n    l      effective z      eigenvalue [eV]  inner max. [A]     outer max. [A]     outer radius [A]   
    2    1         1.700000        -9.7616           1.230570           1.230570           4.607917
    3    2         6.000000       -54.4224           0.792453           0.792453           3.883070
    2    0         4.900000       -81.6679           0.082559           0.562749           3.078220
 

  Adding cutoff potential to free-atom effective potential.
  Creating atomic-like basis functions for current effective potential.

  Species H                   :

  List of atomic basis orbitals and eigenvalues:
    n    l      energy [Ha]    energy [eV]    outer radius [A]
    1    0        -0.237589        -6.4651       4.527807


  Species C                   :

  List of atomic basis orbitals and eigenvalues:
    n    l      energy [Ha]    energy [eV]    outer radius [A]
    1    0       -10.038835      -273.1706       1.934409
    2    0        -0.502696       -13.6791       4.496620
    2    1        -0.191971        -5.2238       4.551928

  Assembling full basis from fixed parts.
  | Species H :   atomic orbital   1 s accepted.
  | Species H :    hydro orbital   2 s accepted.
  | Species H :    hydro orbital   2 p accepted.
  | Species C :   atomic orbital   1 s accepted.
  | Species C :    hydro orbital   2 s accepted.
  | Species C :   atomic orbital   2 s accepted.
  | Species C :   atomic orbital   2 p accepted.
  | Species C :    hydro orbital   2 p accepted.
  | Species C :    hydro orbital   3 d accepted.
 
  Basis size parameters after reduction:
  | Total number of radial functions:        9
  | Total number of basis functions :       96
 
  Per-task memory consumption for arrays in subroutine allocate_ext:
  |           2.209696MB.
  Testing on-site integration grid accuracy.
  |  Species  Function  <phi|h_atom|phi> (log., in eV)  <phi|h_atom|phi> (rad., in eV)
           1        1                 -6.4663192853                 -6.4651273558
           1        2                 13.7111246313                 13.7170609718
           1        3                 25.2673269279                 25.2674696378
           2        4               -273.1705927641               -273.1705631568
           2        5                -10.7109323383                -10.7107120029
           2        6                 17.4381822266                 17.4352413244
           2        7                 -5.2255326521                 -5.2270484734
           2        8                  8.6835629259                  8.6603288385
           2        9                 27.4952418996                 27.4953360207

  Preparing densities etc. for the partition functions (integrals / Hartree potential).

  Preparations completed.
  max(cpu_time)          :      0.128 s.
  Wall clock time (cpu1) :      0.134 s.
------------------------------------------------------------

------------------------------------------------------------
          Begin self-consistency loop: Initialization.

          Date     :  20180215, Time     :  214230.718
------------------------------------------------------------

  Initializing index lists of integration centers etc. from given atomic structure:
  | Number of centers in hartree potential         :        12
  | Number of centers in hartree multipole         :        12
  | Number of centers in electron density summation:        12
  | Number of centers in basis integrals           :        12
  | Number of centers in integrals                 :        12
  | Number of centers in hamiltonian               :        12
  Partitioning the integration grid into batches with parallel hashing+maxmin method.
  | Number of batches:      782
  | Maximal batch size:     166
  | Minimal batch size:      51
  | Average batch size:      77.934
  | Standard deviation of batch sizes:      21.909

  Integration load balanced across     8 MPI tasks.
  Work distribution over tasks is as follows:
  Task     0 has       7640 integration points.
  Task     1 has       7589 integration points.
  Task     2 has       7580 integration points.
  Task     3 has       7588 integration points.
  Task     4 has       7631 integration points.
  Task     5 has       7643 integration points.
  Task     6 has       7580 integration points.
  Task     7 has       7693 integration points.
  Initializing partition tables, free-atom densities, potentials, etc. across the integration grid (initialize_grid_storage).
  | initialize_grid_storage: Actual outermost partition radius vs. multipole_radius_free
  | (-- VB: in principle, multipole_radius_free should be larger, hence this output)
  | Species        1: Confinement radius =              4.999999999999999 AA, multipole_radius_free =              5.054417573612229 AA.
  | Species        1: outer_partition_radius set to              5.054417573612229 AA .
  | Species        2: Confinement radius =              4.999999999999999 AA, multipole_radius_free =              5.019602836301480 AA.
  | Species        2: outer_partition_radius set to              5.019602836301480 AA .
  | Original list of interatomic distances with          12 x         12 entries is created.
  | Net number of integration points:    60944
  | of which are non-zero points    :    52366
  Renormalizing the initial density to the exact electron count on the 3D integration grid.
  | Initial density: Formal number of electrons (from input files) :      32.0000000000
  | Integrated number of electrons on 3D grid     :      31.9997887524
  | Charge integration error                      :      -0.0002112476
  | Normalization factor for density and gradient :       1.0000066015
  Obtaining max. number of non-zero basis functions in each batch (get_n_compute_maxes).
  | Maximal number of non-zero basis functions:       96 in task     0
  | Maximal number of non-zero basis functions:       96 in task     1
  | Maximal number of non-zero basis functions:       96 in task     2
  | Maximal number of non-zero basis functions:       96 in task     3
  | Maximal number of non-zero basis functions:       96 in task     4
  | Maximal number of non-zero basis functions:       96 in task     5
  | Maximal number of non-zero basis functions:       96 in task     6
  | Maximal number of non-zero basis functions:       96 in task     7
  Selecting the method for density update.
  Loop over occupied states selected for charge density update.
  Allocating        0.031 MB for KS_eigenvector
  Integrating Hamiltonian matrix: batch-based integration.
  Time summed over all CPUs for integration: real work        1.248 s, elapsed        1.286 s
  Integrating overlap matrix.
  Time summed over all CPUs for integration: real work        0.468 s, elapsed        0.480 s

  Updating Kohn-Sham eigenvalues, eigenvectors, occupation numbers, and Fermi level.
  Solving generalized eigenproblem
  Updating Kohn-Sham eigenvalues and eigenfunctions.
  Transforming overlap matrix and checking for singularities.
  Overlap matrix is nonsingular:
  | Lowest eigenvalue:  0.322786E-02
  Solving real generalised eigenvalue problem by standard LAPACK (fast)

  Obtaining occupation numbers and chemical potential using ELSI.
  | Chemical potential (Fermi level):    -8.47388773eV
  Writing Kohn-Sham eigenvalues.

  State    Occupation    Eigenvalue [Ha]    Eigenvalue [eV]
      1       2.00000         -10.166672         -276.64923
      2       2.00000         -10.166672         -276.64923
      3       2.00000         -10.151734         -276.24274
      4       2.00000         -10.151078         -276.22487
      5       2.00000          -0.929242          -25.28595
      6       2.00000          -0.855858          -23.28909
      7       2.00000          -0.784401          -21.34462
      8       2.00000          -0.668417          -18.18854
      9       2.00000          -0.593055          -16.13784
     10       2.00000          -0.585317          -15.92729
     11       2.00000          -0.546419          -14.86882
     12       2.00000          -0.534352          -14.54045
     13       2.00000          -0.518130          -14.09904
     14       2.00000          -0.511323          -13.91380
     15       2.00000          -0.477459          -12.99233
     16       2.00000          -0.386116          -10.50675
     17       0.00000          -0.177506           -4.83018
     18       0.00000          -0.034321           -0.93392
     19       0.00000          -0.030067           -0.81817
     20       0.00000          -0.021543           -0.58621
     21       0.00000           0.020426            0.55581
     22       0.00000           0.021425            0.58301
     23       0.00000           0.022603            0.61506
     24       0.00000           0.029362            0.79897
     25       0.00000           0.031666            0.86167
     26       0.00000           0.034472            0.93803
     27       0.00000           0.134105            3.64919
     28       0.00000           0.186922            5.08640
     29       0.00000           0.188994            5.14278
     30       0.00000           0.207455            5.64513
     31       0.00000           0.224026            6.09607
     32       0.00000           0.228652            6.22193
     33       0.00000           0.239901            6.52803
     34       0.00000           0.298872            8.13271
     35       0.00000           0.352842            9.60131
     36       0.00000           0.367886           10.01069
     37       0.00000           0.396404           10.78669
     38       0.00000           0.422789           11.50467
     39       0.00000           0.506957           13.79499
     40       0.00000           0.523782           14.25284

  Highest occupied state (VBM) at    -10.50674630 eV
  | Occupation number:      2.00000000

  Lowest unoccupied state (CBM) at    -4.83017744 eV
  | Occupation number:      0.00000000

  Overall HOMO-LUMO gap:      5.67656886 eV.
  Calculating total energy contributions from superposition of free atom densities.

  Total energy components:
  | Sum of eigenvalues            :         -96.05248914 Ha       -2613.72121404 eV
  | XC energy correction          :         -23.65927221 Ha        -643.80155302 eV
  | XC potential correction       :          30.39229105 Ha         827.01631769 eV
  | Free-atom electrostatic energy:         -68.00950656 Ha       -1850.63283275 eV
  | Hartree energy correction     :           0.00000000 Ha           0.00000000 eV
  | vdW energy correction         :           0.00000000 Ha           0.00000000 eV
  | Entropy correction            :           0.00000000 Ha           0.00000000 eV
  | ---------------------------
  | Total energy                  :        -157.32897685 Ha       -4281.13928213 eV
  | Total energy, T -> 0          :        -157.32897685 Ha       -4281.13928213 eV  <-- do not rely on this value for anything but (periodic) metals
  | Electronic free energy        :        -157.32897685 Ha       -4281.13928213 eV

  Derived energy quantities:
  | Kinetic energy                :         154.19282781 Ha        4195.80032465 eV
  | Electrostatic energy          :        -287.86253245 Ha       -7833.13805376 eV
  | Energy correction for multipole
  | error in Hartree potential    :           0.00000000 Ha           0.00000000 eV
  | Sum of eigenvalues per atom                           :        -217.81010117 eV
  | Total energy (T->0) per atom                          :        -356.76160684 eV  <-- do not rely on this value for anything but (periodic) metals
  | Electronic free energy per atom                       :        -356.76160684 eV
  Initialize hartree_potential_storage
  Max. number of atoms included in rho_multipole:           12

  End scf initialization - timings             :  max(cpu_time)    wall_clock(cpu1)
  | Time for scf. initialization               :        0.408 s           0.408 s
  | Boundary condition initialization          :        0.000 s           0.002 s
  | Integration                                :        0.240 s           0.238 s
  | Solution of K.-S. eqns.                    :        0.012 s           0.011 s
  | Grid partitioning                          :        0.056 s           0.055 s
  | Preloading free-atom quantities on grid    :        0.004 s           0.003 s
  | Free-atom superposition energy             :        0.024 s           0.021 s
  | Total energy evaluation                    :        0.000 s           0.001 s

  Partial memory accounting:
  | Current value for overall tracked memory usage on task 0  :           0.179 MB
  | Peak value for overall tracked memory usage on task 0     :           0.564 MB after allocating wave
  | Largest tracked array allocation on task 0 so far         :           0.127 MB  when allocating H_times_psi
  Note:  These values currently only include a subset of arrays which are explicitly tracked.
  The "true" memory usage will be greater.
------------------------------------------------------------

------------------------------------------------------------
          Begin self-consistency iteration #    1

  Date     :  20180215, Time     :  214231.127
------------------------------------------------------------
  Evaluating new KS density.
  Integration grid: deviation in total charge (<rho> - N_e) =   1.421085E-14
  Pulay mixing of updated and previous charge densities.

  Evaluating partitioned Hartree potential by multipole expansion.
  | Analytical far-field extrapolation by fixed multipoles:
  | Hartree multipole sum: apparent total charge =  -0.242205E-03
  Summing up the Hartree potential.
  Time summed over all CPUs for potential: real work        1.237 s, elapsed        1.247 s
  | RMS charge density error from multipole expansion :   0.133603E-02

  Integrating Hamiltonian matrix: batch-based integration.
  Time summed over all CPUs for integration: real work        1.227 s, elapsed        1.267 s

  Updating Kohn-Sham eigenvalues, eigenvectors, occupation numbers, and Fermi level.
  Solving generalized eigenproblem
  Updating Kohn-Sham eigenvalues and eigenfunctions.
  Solving real generalised eigenvalue problem by standard LAPACK (fast)

  Obtaining occupation numbers and chemical potential using ELSI.
  | Chemical potential (Fermi level):    -8.08427872eV
  Writing Kohn-Sham eigenvalues.

  State    Occupation    Eigenvalue [Ha]    Eigenvalue [eV]
      1       2.00000         -10.131937         -275.70403
      2       2.00000         -10.131937         -275.70402
      3       2.00000         -10.122063         -275.43534
      4       2.00000         -10.121405         -275.41746
      5       2.00000          -0.908796          -24.72960
      6       2.00000          -0.836840          -22.77156
      7       2.00000          -0.765000          -20.81670
      8       2.00000          -0.652135          -17.74551
      9       2.00000          -0.574254          -15.62624
     10       2.00000          -0.566999          -15.42884
     11       2.00000          -0.529924          -14.41996
     12       2.00000          -0.518022          -14.09610
     13       2.00000          -0.499273          -13.58590
     14       2.00000          -0.494753          -13.46291
     15       2.00000          -0.461260          -12.55151
     16       2.00000          -0.368874          -10.03756
     17       0.00000          -0.160965           -4.38008
     18       0.00000          -0.022731           -0.61853
     19       0.00000          -0.021290           -0.57933
     20       0.00000          -0.013324           -0.36255
     21       0.00000           0.030789            0.83781
     22       0.00000           0.032810            0.89281
     23       0.00000           0.036497            0.99313
     24       0.00000           0.039664            1.07932
     25       0.00000           0.042164            1.14735
     26       0.00000           0.044924            1.22244
     27       0.00000           0.146387            3.98341
     28       0.00000           0.197235            5.36705
     29       0.00000           0.199353            5.42468
     30       0.00000           0.218797            5.95376
     31       0.00000           0.233777            6.36141
     32       0.00000           0.242456            6.59756
     33       0.00000           0.252832            6.87991
     34       0.00000           0.312266            8.49720
     35       0.00000           0.364979            9.93159
     36       0.00000           0.378270           10.29325
     37       0.00000           0.407908           11.09974
     38       0.00000           0.435418           11.84834
     39       0.00000           0.518601           14.11184
     40       0.00000           0.536370           14.59536

  Highest occupied state (VBM) at    -10.03756081 eV
  | Occupation number:      2.00000000

  Lowest unoccupied state (CBM) at    -4.38008275 eV
  | Occupation number:      0.00000000

  Overall HOMO-LUMO gap:      5.65747806 eV.

  Total energy components:
  | Sum of eigenvalues            :         -95.36694007 Ha       -2595.06647489 eV
  | XC energy correction          :         -23.71978744 Ha        -645.44825636 eV
  | XC potential correction       :          30.47072945 Ha         829.15073493 eV
  | Free-atom electrostatic energy:         -68.00950656 Ha       -1850.63283275 eV
  | Hartree energy correction     :          -0.65412469 Ha         -17.79963847 eV
  | vdW energy correction         :           0.00000000 Ha           0.00000000 eV
  | Entropy correction            :           0.00000000 Ha           0.00000000 eV
  | ---------------------------
  | Total energy                  :        -157.27962932 Ha       -4279.79646754 eV
  | Total energy, T -> 0          :        -157.27962932 Ha       -4279.79646754 eV  <-- do not rely on this value for anything but (periodic) metals
  | Electronic free energy        :        -157.27962932 Ha       -4279.79646754 eV

  Derived energy quantities:
  | Kinetic energy                :         154.52184813 Ha        4204.75342323 eV
  | Electrostatic energy          :        -288.08169002 Ha       -7839.10163441 eV
  | Energy correction for multipole
  | error in Hartree potential    :           0.00229881 Ha           0.06255371 eV
  | Sum of eigenvalues per atom                           :        -216.25553957 eV
  | Total energy (T->0) per atom                          :        -356.64970563 eV  <-- do not rely on this value for anything but (periodic) metals
  | Electronic free energy per atom                       :        -356.64970563 eV

  Self-consistency convergence accuracy:
  | Change of charge density      :  0.4880E+00
  | Change of sum of eigenvalues  :  0.1865E+02 eV
  | Change of total energy        :  0.1343E+01 eV

  End self-consistency iteration #     1       :  max(cpu_time)    wall_clock(cpu1)
  | Time for this iteration                    :        0.524 s           0.520 s
  | Charge density update                      :        0.168 s           0.166 s
  | Density mixing                             :        0.004 s           0.002 s
  | Hartree multipole update                   :        0.012 s           0.009 s
  | Hartree multipole summation                :        0.168 s           0.168 s
  | Integration                                :        0.172 s           0.170 s
  | Solution of K.-S. eqns.                    :        0.004 s           0.002 s
  | Total energy evaluation                    :        0.000 s           0.001 s

  Partial memory accounting:
  | Current value for overall tracked memory usage on task 0  :           0.179 MB
  | Peak value for overall tracked memory usage on task 0     :           0.689 MB after allocating gradient_basis_wave
  | Largest tracked array allocation on task 0 so far         :           0.382 MB  when allocating gradient_basis_wave
  Note:  These values currently only include a subset of arrays which are explicitly tracked.
  The "true" memory usage will be greater.
------------------------------------------------------------

------------------------------------------------------------
          Begin self-consistency iteration #    2

  Date     :  20180215, Time     :  214231.648
------------------------------------------------------------
  Evaluating new KS density.
  Integration grid: deviation in total charge (<rho> - N_e) =   7.105427E-15
  Pulay mixing of updated and previous charge densities.

  Evaluating partitioned Hartree potential by multipole expansion.
  | Analytical far-field extrapolation by fixed multipoles:
  | Hartree multipole sum: apparent total charge =  -0.513069E-03
  Summing up the Hartree potential.
  Time summed over all CPUs for potential: real work        1.240 s, elapsed        1.257 s
  | RMS charge density error from multipole expansion :   0.131186E-01

  Integrating Hamiltonian matrix: batch-based integration.
  Time summed over all CPUs for integration: real work        1.224 s, elapsed        1.266 s

  Updating Kohn-Sham eigenvalues, eigenvectors, occupation numbers, and Fermi level.
  Solving generalized eigenproblem
  Updating Kohn-Sham eigenvalues and eigenfunctions.
  Solving real generalised eigenvalue problem by standard LAPACK (fast)

  Obtaining occupation numbers and chemical potential using ELSI.
  | Chemical potential (Fermi level):    -4.70444304eV
  Highest occupied state (VBM) at     -6.18670377 eV
  | Occupation number:      2.00000000

  Lowest unoccupied state (CBM) at    -0.71870121 eV
  | Occupation number:      0.00000000

  Overall HOMO-LUMO gap:      5.46800256 eV.

  Checking to see if s.c.f. parameters should be adjusted.
  The system likely has a gap. Increased the default Pulay mixing parameter (charge_mix_param). Value:   0.200000 .
  Kept the default occupation width. Value:   0.010000 eV.

  Total energy components:
  | Sum of eigenvalues            :         -89.66057101 Ha       -2439.78827216 eV
  | XC energy correction          :         -24.27604156 Ha        -660.58470097 eV
  | XC potential correction       :          31.19138415 Ha         848.76074709 eV
  | Free-atom electrostatic energy:         -68.00950656 Ha       -1850.63283275 eV
  | Hartree energy correction     :          -6.32250447 Ha        -172.04410009 eV
  | vdW energy correction         :           0.00000000 Ha           0.00000000 eV
  | Entropy correction            :           0.00000000 Ha           0.00000000 eV
  | ---------------------------
  | Total energy                  :        -157.07723945 Ha       -4274.28915888 eV
  | Total energy, T -> 0          :        -157.07723945 Ha       -4274.28915888 eV  <-- do not rely on this value for anything but (periodic) metals
  | Electronic free energy        :        -157.07723945 Ha       -4274.28915888 eV

  Derived energy quantities:
  | Kinetic energy                :         156.94003885 Ha        4270.55574071 eV
  | Electrostatic energy          :        -289.74123675 Ha       -7884.26019862 eV
  | Energy correction for multipole
  | error in Hartree potential    :           0.02177491 Ha           0.59252533 eV
  | Sum of eigenvalues per atom                           :        -203.31568935 eV
  | Total energy (T->0) per atom                          :        -356.19076324 eV  <-- do not rely on this value for anything but (periodic) metals
  | Electronic free energy per atom                       :        -356.19076324 eV

  Self-consistency convergence accuracy:
  | Change of charge density      :  0.4489E+00
  | Change of sum of eigenvalues  :  0.1553E+03 eV
  | Change of total energy        :  0.5507E+01 eV

  End self-consistency iteration #     2       :  max(cpu_time)    wall_clock(cpu1)
  | Time for this iteration                    :        0.520 s           0.519 s
  | Charge density update                      :        0.164 s           0.164 s
  | Density mixing                             :        0.004 s           0.002 s
  | Hartree multipole update                   :        0.012 s           0.011 s
  | Hartree multipole summation                :        0.172 s           0.169 s
  | Integration                                :        0.172 s           0.170 s
  | Solution of K.-S. eqns.                    :        0.004 s           0.002 s
  | Total energy evaluation                    :        0.000 s           0.001 s

  Partial memory accounting:
  | Current value for overall tracked memory usage on task 0  :           0.180 MB
  | Peak value for overall tracked memory usage on task 0     :           0.689 MB after allocating gradient_basis_wave
  | Largest tracked array allocation on task 0 so far         :           0.382 MB  when allocating gradient_basis_wave
  Note:  These values currently only include a subset of arrays which are explicitly tracked.
  The "true" memory usage will be greater.
------------------------------------------------------------

------------------------------------------------------------
          Begin self-consistency iteration #    3

  Date     :  20180215, Time     :  214232.168
------------------------------------------------------------
  Evaluating new KS density.
  Integration grid: deviation in total charge (<rho> - N_e) =   0.000000E+00
  Pulay mixing of updated and previous charge densities.

  Evaluating partitioned Hartree potential by multipole expansion.
  | Analytical far-field extrapolation by fixed multipoles:
  | Hartree multipole sum: apparent total charge =  -0.504947E-03
  Summing up the Hartree potential.
  Time summed over all CPUs for potential: real work        1.243 s, elapsed        1.261 s
  | RMS charge density error from multipole expansion :   0.162828E-01

  Integrating Hamiltonian matrix: batch-based integration.
  Time summed over all CPUs for integration: real work        1.232 s, elapsed        1.274 s

  Updating Kohn-Sham eigenvalues, eigenvectors, occupation numbers, and Fermi level.
  Solving generalized eigenproblem
  Updating Kohn-Sham eigenvalues and eigenfunctions.
  Solving real generalised eigenvalue problem by standard LAPACK (fast)

  Obtaining occupation numbers and chemical potential using ELSI.
  | Chemical potential (Fermi level):    -5.08029433eV
  Highest occupied state (VBM) at     -6.84821538 eV
  | Occupation number:      2.00000000

  Lowest unoccupied state (CBM) at    -1.35888114 eV
  | Occupation number:      0.00000000

  Overall HOMO-LUMO gap:      5.48933424 eV.

  Total energy components:
  | Sum of eigenvalues            :         -90.59208760 Ha       -2465.13612830 eV
  | XC energy correction          :         -24.23247082 Ha        -659.39908082 eV
  | XC potential correction       :          31.13133864 Ha         847.12682565 eV
  | Free-atom electrostatic energy:         -68.00950656 Ha       -1850.63283275 eV
  | Hartree energy correction     :          -5.36915449 Ha        -146.10212724 eV
  | vdW energy correction         :           0.00000000 Ha           0.00000000 eV
  | Entropy correction            :           0.00000000 Ha           0.00000000 eV
  | ---------------------------
  | Total energy                  :        -157.07188083 Ha       -4274.14334347 eV
  | Total energy, T -> 0          :        -157.07188083 Ha       -4274.14334347 eV  <-- do not rely on this value for anything but (periodic) metals
  | Electronic free energy        :        -157.07188083 Ha       -4274.14334347 eV

  Derived energy quantities:
  | Kinetic energy                :         156.28787847 Ha        4252.80955385 eV
  | Electrostatic energy          :        -289.12728849 Ha       -7867.55381650 eV
  | Energy correction for multipole
  | error in Hartree potential    :           0.02616951 Ha           0.71210851 eV
  | Sum of eigenvalues per atom                           :        -205.42801069 eV
  | Total energy (T->0) per atom                          :        -356.17861196 eV  <-- do not rely on this value for anything but (periodic) metals
  | Electronic free energy per atom                       :        -356.17861196 eV

  Self-consistency convergence accuracy:
  | Change of charge density      :  0.2095E+00
  | Change of sum of eigenvalues  : -0.2535E+02 eV
  | Change of total energy        :  0.1458E+00 eV

  End self-consistency iteration #     3       :  max(cpu_time)    wall_clock(cpu1)
  | Time for this iteration                    :        0.524 s           0.522 s
  | Charge density update                      :        0.164 s           0.163 s
  | Density mixing                             :        0.004 s           0.005 s
  | Hartree multipole update                   :        0.012 s           0.010 s
  | Hartree multipole summation                :        0.172 s           0.170 s
  | Integration                                :        0.172 s           0.171 s
  | Solution of K.-S. eqns.                    :        0.004 s           0.002 s
  | Total energy evaluation                    :        0.000 s           0.001 s

  Partial memory accounting:
  | Current value for overall tracked memory usage on task 0  :           0.180 MB
  | Peak value for overall tracked memory usage on task 0     :           0.690 MB after allocating gradient_basis_wave
  | Largest tracked array allocation on task 0 so far         :           0.382 MB  when allocating gradient_basis_wave
  Note:  These values currently only include a subset of arrays which are explicitly tracked.
  The "true" memory usage will be greater.
------------------------------------------------------------

------------------------------------------------------------
          Begin self-consistency iteration #    4

  Date     :  20180215, Time     :  214232.691
------------------------------------------------------------
  Evaluating new KS density.
  Integration grid: deviation in total charge (<rho> - N_e) =  -7.105427E-15
  Pulay mixing of updated and previous charge densities.

  Evaluating partitioned Hartree potential by multipole expansion.
  | Analytical far-field extrapolation by fixed multipoles:
  | Hartree multipole sum: apparent total charge =  -0.583865E-03
  Summing up the Hartree potential.
  Time summed over all CPUs for potential: real work        1.241 s, elapsed        1.257 s
  | RMS charge density error from multipole expansion :   0.221284E-01

  Integrating Hamiltonian matrix: batch-based integration.
  Time summed over all CPUs for integration: real work        1.226 s, elapsed        1.271 s

  Updating Kohn-Sham eigenvalues, eigenvectors, occupation numbers, and Fermi level.
  Solving generalized eigenproblem
  Updating Kohn-Sham eigenvalues and eigenfunctions.
  Solving real generalised eigenvalue problem by standard LAPACK (fast)

  Obtaining occupation numbers and chemical potential using ELSI.
  | Chemical potential (Fermi level):    -4.35451342eV
  Highest occupied state (VBM) at     -6.20005012 eV
  | Occupation number:      2.00000000

  Lowest unoccupied state (CBM) at    -0.75185165 eV
  | Occupation number:      0.00000000

  Overall HOMO-LUMO gap:      5.44819847 eV.

  Total energy components:
  | Sum of eigenvalues            :         -89.67709876 Ha       -2440.23801522 eV
  | XC energy correction          :         -24.37201987 Ha        -663.19640367 eV
  | XC potential correction       :          31.30971389 Ha         851.98066318 eV
  | Free-atom electrostatic energy:         -68.00950656 Ha       -1850.63283275 eV
  | Hartree energy correction     :          -6.31237472 Ha        -171.76845560 eV
  | vdW energy correction         :           0.00000000 Ha           0.00000000 eV
  | Entropy correction            :           0.00000000 Ha           0.00000000 eV
  | ---------------------------
  | Total energy                  :        -157.06128602 Ha       -4273.85504407 eV
  | Total energy, T -> 0          :        -157.06128602 Ha       -4273.85504407 eV  <-- do not rely on this value for anything but (periodic) metals
  | Electronic free energy        :        -157.06128602 Ha       -4273.85504407 eV

  Derived energy quantities:
  | Kinetic energy                :         156.35329419 Ha        4254.58960618 eV
  | Electrostatic energy          :        -289.04256035 Ha       -7865.24824657 eV
  | Energy correction for multipole
  | error in Hartree potential    :           0.03394946 Ha           0.92381180 eV
  | Sum of eigenvalues per atom                           :        -203.35316793 eV
  | Total energy (T->0) per atom                          :        -356.15458701 eV  <-- do not rely on this value for anything but (periodic) metals
  | Electronic free energy per atom                       :        -356.15458701 eV

  Self-consistency convergence accuracy:
  | Change of charge density      :  0.1267E+00
  | Change of sum of eigenvalues  :  0.2490E+02 eV
  | Change of total energy        :  0.2883E+00 eV

  End self-consistency iteration #     4       :  max(cpu_time)    wall_clock(cpu1)
  | Time for this iteration                    :        0.524 s           0.523 s
  | Charge density update                      :        0.164 s           0.164 s
  | Density mixing                             :        0.008 s           0.006 s
  | Hartree multipole update                   :        0.012 s           0.010 s
  | Hartree multipole summation                :        0.172 s           0.169 s
  | Integration                                :        0.172 s           0.171 s
  | Solution of K.-S. eqns.                    :        0.004 s           0.002 s
  | Total energy evaluation                    :        0.000 s           0.001 s

  Partial memory accounting:
  | Current value for overall tracked memory usage on task 0  :           0.180 MB
  | Peak value for overall tracked memory usage on task 0     :           0.690 MB after allocating gradient_basis_wave
  | Largest tracked array allocation on task 0 so far         :           0.382 MB  when allocating gradient_basis_wave
  Note:  These values currently only include a subset of arrays which are explicitly tracked.
  The "true" memory usage will be greater.
------------------------------------------------------------

------------------------------------------------------------
          Begin self-consistency iteration #    5

  Date     :  20180215, Time     :  214233.215
------------------------------------------------------------
  Evaluating new KS density.
  Integration grid: deviation in total charge (<rho> - N_e) =   0.000000E+00
  Pulay mixing of updated and previous charge densities.

  Evaluating partitioned Hartree potential by multipole expansion.
  | Analytical far-field extrapolation by fixed multipoles:
  | Hartree multipole sum: apparent total charge =  -0.609412E-03
  Summing up the Hartree potential.
  Time summed over all CPUs for potential: real work        1.240 s, elapsed        1.272 s
  | RMS charge density error from multipole expansion :   0.226476E-01

  Integrating Hamiltonian matrix: batch-based integration.
  Time summed over all CPUs for integration: real work        1.243 s, elapsed        1.293 s

  Updating Kohn-Sham eigenvalues, eigenvectors, occupation numbers, and Fermi level.
  Solving generalized eigenproblem
  Updating Kohn-Sham eigenvalues and eigenfunctions.
  Solving real generalised eigenvalue problem by standard LAPACK (fast)

  Obtaining occupation numbers and chemical potential using ELSI.
  | Chemical potential (Fermi level):    -4.18371703eV
  Highest occupied state (VBM) at     -5.96522977 eV
  | Occupation number:      2.00000000

  Lowest unoccupied state (CBM) at    -0.51741186 eV
  | Occupation number:      0.00000000

  Overall HOMO-LUMO gap:      5.44781791 eV.

  Total energy components:
  | Sum of eigenvalues            :         -89.44971830 Ha       -2434.05067811 eV
  | XC energy correction          :         -24.39132116 Ha        -663.72161842 eV
  | XC potential correction       :          31.33482051 Ha         852.66384909 eV
  | Free-atom electrostatic energy:         -68.00950656 Ha       -1850.63283275 eV
  | Hartree energy correction     :          -6.54453903 Ha        -178.08596804 eV
  | vdW energy correction         :           0.00000000 Ha           0.00000000 eV
  | Entropy correction            :           0.00000000 Ha           0.00000000 eV
  | ---------------------------
  | Total energy                  :        -157.06026455 Ha       -4273.82724823 eV
  | Total energy, T -> 0          :        -157.06026455 Ha       -4273.82724823 eV  <-- do not rely on this value for anything but (periodic) metals
  | Electronic free energy        :        -157.06026455 Ha       -4273.82724823 eV

  Derived energy quantities:
  | Kinetic energy                :         156.33422954 Ha        4254.07083042 eV
  | Electrostatic energy          :        -289.00317293 Ha       -7864.17646024 eV
  | Energy correction for multipole
  | error in Hartree potential    :           0.03343858 Ha           0.90991003 eV
  | Sum of eigenvalues per atom                           :        -202.83755651 eV
  | Total energy (T->0) per atom                          :        -356.15227069 eV  <-- do not rely on this value for anything but (periodic) metals
  | Electronic free energy per atom                       :        -356.15227069 eV

  Self-consistency convergence accuracy:
  | Change of charge density      :  0.3068E-01
  | Change of sum of eigenvalues  :  0.6187E+01 eV
  | Change of total energy        :  0.2780E-01 eV

  End self-consistency iteration #     5       :  max(cpu_time)    wall_clock(cpu1)
  | Time for this iteration                    :        0.532 s           0.532 s
  | Charge density update                      :        0.164 s           0.163 s
  | Density mixing                             :        0.008 s           0.008 s
  | Hartree multipole update                   :        0.012 s           0.010 s
  | Hartree multipole summation                :        0.172 s           0.171 s
  | Integration                                :        0.176 s           0.175 s
  | Solution of K.-S. eqns.                    :        0.004 s           0.003 s
  | Total energy evaluation                    :        0.000 s           0.000 s

  Partial memory accounting:
  | Current value for overall tracked memory usage on task 0  :           0.180 MB
  | Peak value for overall tracked memory usage on task 0     :           0.690 MB after allocating gradient_basis_wave
  | Largest tracked array allocation on task 0 so far         :           0.382 MB  when allocating gradient_basis_wave
  Note:  These values currently only include a subset of arrays which are explicitly tracked.
  The "true" memory usage will be greater.
------------------------------------------------------------

------------------------------------------------------------
          Begin self-consistency iteration #    6

  Date     :  20180215, Time     :  214233.747
------------------------------------------------------------
  Evaluating new KS density.
  Integration grid: deviation in total charge (<rho> - N_e) =  -1.065814E-14
  Pulay mixing of updated and previous charge densities.

  Evaluating partitioned Hartree potential by multipole expansion.
  | Analytical far-field extrapolation by fixed multipoles:
  | Hartree multipole sum: apparent total charge =  -0.630646E-03
  Summing up the Hartree potential.
  Time summed over all CPUs for potential: real work        1.241 s, elapsed        1.255 s
  | RMS charge density error from multipole expansion :   0.229786E-01

  Integrating Hamiltonian matrix: batch-based integration.
  Time summed over all CPUs for integration: real work        1.227 s, elapsed        1.273 s

  Updating Kohn-Sham eigenvalues, eigenvectors, occupation numbers, and Fermi level.
  Solving generalized eigenproblem
  Updating Kohn-Sham eigenvalues and eigenfunctions.
  Solving real generalised eigenvalue problem by standard LAPACK (fast)

  Obtaining occupation numbers and chemical potential using ELSI.
  | Chemical potential (Fermi level):    -4.08769051eV
  Highest occupied state (VBM) at     -5.86277701 eV
  | Occupation number:      2.00000000

  Lowest unoccupied state (CBM) at    -0.41757615 eV
  | Occupation number:      0.00000000

  Overall HOMO-LUMO gap:      5.44520086 eV.

  Total energy components:
  | Sum of eigenvalues            :         -89.33526286 Ha       -2430.93618722 eV
  | XC energy correction          :         -24.40322997 Ha        -664.04567376 eV
  | XC potential correction       :          31.35028149 Ha         853.08456390 eV
  | Free-atom electrostatic energy:         -68.00950656 Ha       -1850.63283275 eV
  | Hartree energy correction     :          -6.66227274 Ha        -181.28966524 eV
  | vdW energy correction         :           0.00000000 Ha           0.00000000 eV
  | Entropy correction            :           0.00000000 Ha           0.00000000 eV
  | ---------------------------
  | Total energy                  :        -157.05999065 Ha       -4273.81979507 eV
  | Total energy, T -> 0          :        -157.05999065 Ha       -4273.81979507 eV  <-- do not rely on this value for anything but (periodic) metals
  | Electronic free energy        :        -157.05999065 Ha       -4273.81979507 eV

  Derived energy quantities:
  | Kinetic energy                :         156.28976749 Ha        4252.86095658 eV
  | Electrostatic energy          :        -288.94652817 Ha       -7862.63507789 eV
  | Energy correction for multipole
  | error in Hartree potential    :           0.03263717 Ha           0.88810258 eV
  | Sum of eigenvalues per atom                           :        -202.57801560 eV
  | Total energy (T->0) per atom                          :        -356.15164959 eV  <-- do not rely on this value for anything but (periodic) metals
  | Electronic free energy per atom                       :        -356.15164959 eV

  Self-consistency convergence accuracy:
  | Change of charge density      :  0.1640E-01
  | Change of sum of eigenvalues  :  0.3114E+01 eV
  | Change of total energy        :  0.7453E-02 eV

  End self-consistency iteration #     6       :  max(cpu_time)    wall_clock(cpu1)
  | Time for this iteration                    :        0.528 s           0.525 s
  | Charge density update                      :        0.164 s           0.162 s
  | Density mixing                             :        0.012 s           0.009 s
  | Hartree multipole update                   :        0.012 s           0.010 s
  | Hartree multipole summation                :        0.172 s           0.169 s
  | Integration                                :        0.172 s           0.171 s
  | Solution of K.-S. eqns.                    :        0.004 s           0.003 s
  | Total energy evaluation                    :        0.000 s           0.001 s

  Partial memory accounting:
  | Current value for overall tracked memory usage on task 0  :           0.180 MB
  | Peak value for overall tracked memory usage on task 0     :           0.690 MB after allocating gradient_basis_wave
  | Largest tracked array allocation on task 0 so far         :           0.382 MB  when allocating gradient_basis_wave
  Note:  These values currently only include a subset of arrays which are explicitly tracked.
  The "true" memory usage will be greater.
------------------------------------------------------------

------------------------------------------------------------
          Begin self-consistency iteration #    7

  Date     :  20180215, Time     :  214234.274
------------------------------------------------------------
  Evaluating new KS density.
  Integration grid: deviation in total charge (<rho> - N_e) =  -7.105427E-15
  Pulay mixing of updated and previous charge densities.

  Evaluating partitioned Hartree potential by multipole expansion.
  | Analytical far-field extrapolation by fixed multipoles:
  | Hartree multipole sum: apparent total charge =  -0.635008E-03
  Summing up the Hartree potential.
  Time summed over all CPUs for potential: real work        1.243 s, elapsed        1.258 s
  | RMS charge density error from multipole expansion :   0.229624E-01

  Integrating Hamiltonian matrix: batch-based integration.
  Time summed over all CPUs for integration: real work        1.233 s, elapsed        1.273 s

  Updating Kohn-Sham eigenvalues, eigenvectors, occupation numbers, and Fermi level.
  Solving generalized eigenproblem
  Updating Kohn-Sham eigenvalues and eigenfunctions.
  Solving real generalised eigenvalue problem by standard LAPACK (fast)

  Obtaining occupation numbers and chemical potential using ELSI.
  | Chemical potential (Fermi level):    -4.06539598eV
  Highest occupied state (VBM) at     -5.83091939 eV
  | Occupation number:      2.00000000

  Lowest unoccupied state (CBM) at    -0.38614201 eV
  | Occupation number:      0.00000000

  Overall HOMO-LUMO gap:      5.44477739 eV.

  Total energy components:
  | Sum of eigenvalues            :         -89.30355676 Ha       -2430.07342018 eV
  | XC energy correction          :         -24.40525144 Ha        -664.10068069 eV
  | XC potential correction       :          31.35297179 Ha         853.15777059 eV
  | Free-atom electrostatic energy:         -68.00950656 Ha       -1850.63283275 eV
  | Hartree energy correction     :          -6.69460065 Ha        -182.16935242 eV
  | vdW energy correction         :           0.00000000 Ha           0.00000000 eV
  | Entropy correction            :           0.00000000 Ha           0.00000000 eV
  | ---------------------------
  | Total energy                  :        -157.05994362 Ha       -4273.81851545 eV
  | Total energy, T -> 0          :        -157.05994362 Ha       -4273.81851545 eV  <-- do not rely on this value for anything but (periodic) metals
  | Electronic free energy        :        -157.05994362 Ha       -4273.81851545 eV

  Derived energy quantities:
  | Kinetic energy                :         156.28831285 Ha        4252.82137388 eV
  | Electrostatic energy          :        -288.94300504 Ha       -7862.53920864 eV
  | Energy correction for multipole
  | error in Hartree potential    :           0.03234713 Ha           0.88021021 eV
  | Sum of eigenvalues per atom                           :        -202.50611835 eV
  | Total energy (T->0) per atom                          :        -356.15154295 eV  <-- do not rely on this value for anything but (periodic) metals
  | Electronic free energy per atom                       :        -356.15154295 eV

  Self-consistency convergence accuracy:
  | Change of charge density      :  0.6599E-02
  | Change of sum of eigenvalues  :  0.8628E+00 eV
  | Change of total energy        :  0.1280E-02 eV

  End self-consistency iteration #     7       :  max(cpu_time)    wall_clock(cpu1)
  | Time for this iteration                    :        0.528 s           0.528 s
  | Charge density update                      :        0.164 s           0.162 s
  | Density mixing                             :        0.012 s           0.012 s
  | Hartree multipole update                   :        0.012 s           0.010 s
  | Hartree multipole summation                :        0.172 s           0.169 s
  | Integration                                :        0.172 s           0.171 s
  | Solution of K.-S. eqns.                    :        0.004 s           0.002 s
  | Total energy evaluation                    :        0.004 s           0.000 s

  Partial memory accounting:
  | Current value for overall tracked memory usage on task 0  :           0.180 MB
  | Peak value for overall tracked memory usage on task 0     :           0.690 MB after allocating gradient_basis_wave
  | Largest tracked array allocation on task 0 so far         :           0.382 MB  when allocating gradient_basis_wave
  Note:  These values currently only include a subset of arrays which are explicitly tracked.
  The "true" memory usage will be greater.
------------------------------------------------------------

------------------------------------------------------------
          Begin self-consistency iteration #    8

  Date     :  20180215, Time     :  214234.802
------------------------------------------------------------
  Evaluating new KS density.
  Integration grid: deviation in total charge (<rho> - N_e) =  -3.552714E-15
  Pulay mixing of updated and previous charge densities.

  Evaluating partitioned Hartree potential by multipole expansion.
  | Analytical far-field extrapolation by fixed multipoles:
  | Hartree multipole sum: apparent total charge =  -0.643964E-03
  Summing up the Hartree potential.
  Time summed over all CPUs for potential: real work        1.243 s, elapsed        1.251 s
  | RMS charge density error from multipole expansion :   0.230067E-01

  Integrating Hamiltonian matrix: batch-based integration.
  Time summed over all CPUs for integration: real work        1.229 s, elapsed        1.281 s

  Updating Kohn-Sham eigenvalues, eigenvectors, occupation numbers, and Fermi level.
  Solving generalized eigenproblem
  Updating Kohn-Sham eigenvalues and eigenfunctions.
  Solving real generalised eigenvalue problem by standard LAPACK (fast)

  Obtaining occupation numbers and chemical potential using ELSI.
  | Chemical potential (Fermi level):    -4.01730692eV
  Highest occupied state (VBM) at     -5.77009147 eV
  | Occupation number:      2.00000000

  Lowest unoccupied state (CBM) at    -0.32790468 eV
  | Occupation number:      0.00000000

  Overall HOMO-LUMO gap:      5.44218679 eV.

  Total energy components:
  | Sum of eigenvalues            :         -89.23923842 Ha       -2428.32322921 eV
  | XC energy correction          :         -24.41150841 Ha        -664.27094168 eV
  | XC potential correction       :          31.36115450 Ha         853.38043341 eV
  | Free-atom electrostatic energy:         -68.00950656 Ha       -1850.63283275 eV
  | Hartree energy correction     :          -6.76080525 Ha        -183.97087117 eV
  | vdW energy correction         :           0.00000000 Ha           0.00000000 eV
  | Entropy correction            :           0.00000000 Ha           0.00000000 eV
  | ---------------------------
  | Total energy                  :        -157.05990415 Ha       -4273.81744140 eV
  | Total energy, T -> 0          :        -157.05990415 Ha       -4273.81744140 eV  <-- do not rely on this value for anything but (periodic) metals
  | Electronic free energy        :        -157.05990415 Ha       -4273.81744140 eV

  Derived energy quantities:
  | Kinetic energy                :         156.29122739 Ha        4252.90068255 eV
  | Electrostatic energy          :        -288.93962313 Ha       -7862.44718227 eV
  | Energy correction for multipole
  | error in Hartree potential    :           0.03196896 Ha           0.86991953 eV
  | Sum of eigenvalues per atom                           :        -202.36026910 eV
  | Total energy (T->0) per atom                          :        -356.15145345 eV  <-- do not rely on this value for anything but (periodic) metals
  | Electronic free energy per atom                       :        -356.15145345 eV

  Self-consistency convergence accuracy:
  | Change of charge density      :  0.4800E-02
  | Change of sum of eigenvalues  :  0.1750E+01 eV
  | Change of total energy        :  0.1074E-02 eV

  End self-consistency iteration #     8       :  max(cpu_time)    wall_clock(cpu1)
  | Time for this iteration                    :        0.532 s           0.530 s
  | Charge density update                      :        0.164 s           0.163 s
  | Density mixing                             :        0.012 s           0.013 s
  | Hartree multipole update                   :        0.012 s           0.010 s
  | Hartree multipole summation                :        0.172 s           0.169 s
  | Integration                                :        0.172 s           0.172 s
  | Solution of K.-S. eqns.                    :        0.004 s           0.002 s
  | Total energy evaluation                    :        0.004 s           0.001 s

  Partial memory accounting:
  | Current value for overall tracked memory usage on task 0  :           0.180 MB
  | Peak value for overall tracked memory usage on task 0     :           0.690 MB after allocating gradient_basis_wave
  | Largest tracked array allocation on task 0 so far         :           0.382 MB  when allocating gradient_basis_wave
  Note:  These values currently only include a subset of arrays which are explicitly tracked.
  The "true" memory usage will be greater.
------------------------------------------------------------

------------------------------------------------------------
          Begin self-consistency iteration #    9

  Date     :  20180215, Time     :  214235.333
------------------------------------------------------------
  Evaluating new KS density.
  Integration grid: deviation in total charge (<rho> - N_e) =   7.105427E-15
  Pulay mixing of updated and previous charge densities.

  Evaluating partitioned Hartree potential by multipole expansion.
  | Analytical far-field extrapolation by fixed multipoles:
  | Hartree multipole sum: apparent total charge =  -0.645671E-03
  Summing up the Hartree potential.
  Time summed over all CPUs for potential: real work        1.241 s, elapsed        1.253 s
  | RMS charge density error from multipole expansion :   0.230165E-01

  Integrating Hamiltonian matrix: batch-based integration.
  Time summed over all CPUs for integration: real work        1.236 s, elapsed        1.271 s

  Updating Kohn-Sham eigenvalues, eigenvectors, occupation numbers, and Fermi level.
  Solving generalized eigenproblem
  Updating Kohn-Sham eigenvalues and eigenfunctions.
  Solving real generalised eigenvalue problem by standard LAPACK (fast)

  Obtaining occupation numbers and chemical potential using ELSI.
  | Chemical potential (Fermi level):    -4.00765726eV
  Highest occupied state (VBM) at     -5.75847660 eV
  | Occupation number:      2.00000000

  Lowest unoccupied state (CBM) at    -0.31658295 eV
  | Occupation number:      0.00000000

  Overall HOMO-LUMO gap:      5.44189365 eV.

  Total energy components:
  | Sum of eigenvalues            :         -89.22592815 Ha       -2427.96103816 eV
  | XC energy correction          :         -24.41298243 Ha        -664.31105156 eV
  | XC potential correction       :          31.36307266 Ha         853.43262927 eV
  | Free-atom electrostatic energy:         -68.00950656 Ha       -1850.63283275 eV
  | Hartree energy correction     :          -6.77455945 Ha        -184.34514214 eV
  | vdW energy correction         :           0.00000000 Ha           0.00000000 eV
  | Entropy correction            :           0.00000000 Ha           0.00000000 eV
  | ---------------------------
  | Total energy                  :        -157.05990393 Ha       -4273.81743534 eV
  | Total energy, T -> 0          :        -157.05990393 Ha       -4273.81743534 eV  <-- do not rely on this value for anything but (periodic) metals
  | Electronic free energy        :        -157.05990393 Ha       -4273.81743534 eV

  Derived energy quantities:
  | Kinetic energy                :         156.29411393 Ha        4252.97922914 eV
  | Electrostatic energy          :        -288.94103543 Ha       -7862.48561291 eV
  | Energy correction for multipole
  | error in Hartree potential    :           0.03192211 Ha           0.86864489 eV
  | Sum of eigenvalues per atom                           :        -202.33008651 eV
  | Total energy (T->0) per atom                          :        -356.15145294 eV  <-- do not rely on this value for anything but (periodic) metals
  | Electronic free energy per atom                       :        -356.15145294 eV

  Self-consistency convergence accuracy:
  | Change of charge density      :  0.7718E-03
  | Change of sum of eigenvalues  :  0.3622E+00 eV
  | Change of total energy        :  0.6065E-05 eV

  End self-consistency iteration #     9       :  max(cpu_time)    wall_clock(cpu1)
  | Time for this iteration                    :        0.532 s           0.531 s
  | Charge density update                      :        0.168 s           0.164 s
  | Density mixing                             :        0.016 s           0.014 s
  | Hartree multipole update                   :        0.012 s           0.010 s
  | Hartree multipole summation                :        0.168 s           0.168 s
  | Integration                                :        0.172 s           0.171 s
  | Solution of K.-S. eqns.                    :        0.004 s           0.002 s
  | Total energy evaluation                    :        0.004 s           0.000 s

  Partial memory accounting:
  | Current value for overall tracked memory usage on task 0  :           0.180 MB
  | Peak value for overall tracked memory usage on task 0     :           0.690 MB after allocating gradient_basis_wave
  | Largest tracked array allocation on task 0 so far         :           0.382 MB  when allocating gradient_basis_wave
  Note:  These values currently only include a subset of arrays which are explicitly tracked.
  The "true" memory usage will be greater.
------------------------------------------------------------

------------------------------------------------------------
          Begin self-consistency iteration #   10

  Date     :  20180215, Time     :  214235.865
------------------------------------------------------------
  Evaluating new KS density.
  Integration grid: deviation in total charge (<rho> - N_e) =   0.000000E+00
  Pulay mixing of updated and previous charge densities.

  Evaluating partitioned Hartree potential by multipole expansion.
  | Analytical far-field extrapolation by fixed multipoles:
  | Hartree multipole sum: apparent total charge =  -0.645519E-03
  Summing up the Hartree potential.
  Time summed over all CPUs for potential: real work        1.245 s, elapsed        1.252 s
  | RMS charge density error from multipole expansion :   0.230160E-01

  Integrating Hamiltonian matrix: batch-based integration.
  Time summed over all CPUs for integration: real work        1.233 s, elapsed        1.279 s

[...]
  |   Hirshfeld dipole moment :      0.08796108
  |   Hirshfeld second moments:      0.09897047      -0.00109551       0.00922740
  |                                 -0.00109551       0.11080677      -0.00156643
  |                                  0.00922740      -0.00156643       0.09276402
  ----------------------------------------------------------------------
  | Atom     8: H
  |   Hirshfeld charge        :      0.03770025
  |   Free atom volume        :      9.95071624
  |   Hirshfeld volume        :      6.48464273
  |   Hirshfeld dipole vector :     -0.01990099       0.08617259       0.00049335
  |   Hirshfeld dipole moment :      0.08844212
  |   Hirshfeld second moments:      0.09879690       0.00229467       0.00011031
  |                                  0.00229467       0.08609727      -0.00034786
  |                                  0.00011031      -0.00034786       0.09911746
  ----------------------------------------------------------------------
  | Atom     9: H
  |   Hirshfeld charge        :      0.03770025
  |   Free atom volume        :      9.95071624
  |   Hirshfeld volume        :      6.48464273
  |   Hirshfeld dipole vector :      0.01990099      -0.08617259       0.00049333
  |   Hirshfeld dipole moment :      0.08844212
  |   Hirshfeld second moments:      0.09879690       0.00229467      -0.00011031
  |                                  0.00229467       0.08609727       0.00034785
  |                                 -0.00011031       0.00034785       0.09911746
  ----------------------------------------------------------------------
  | Atom    10: H
  |   Hirshfeld charge        :      0.04170929
  |   Free atom volume        :      9.95071624
  |   Hirshfeld volume        :      6.29179966
  |   Hirshfeld dipole vector :     -0.01584236       0.08564190      -0.01094508
  |   Hirshfeld dipole moment :      0.08777989
  |   Hirshfeld second moments:      0.09985262       0.00225626      -0.00097099
  |                                  0.00225626       0.08686088       0.00230873
  |                                 -0.00097099       0.00230873       0.10820741
  ----------------------------------------------------------------------
  | Atom    11: H
  |   Hirshfeld charge        :      0.04218775
  |   Free atom volume        :      9.95071624
  |   Hirshfeld volume        :      6.15607760
  |   Hirshfeld dipole vector :      0.04569032      -0.00696071       0.07484047
  |   Hirshfeld dipole moment :      0.08796108
  |   Hirshfeld second moments:      0.09897047      -0.00109551      -0.00922741
  |                                 -0.00109551       0.11080676       0.00156643
  |                                 -0.00922741       0.00156643       0.09276403
  ----------------------------------------------------------------------
  | Atom    12: H
  |   Hirshfeld charge        :      0.04188635
  |   Free atom volume        :      9.95071624
  |   Hirshfeld volume        :      6.13060220
  |   Hirshfeld dipole vector :      0.05785242      -0.02309083      -0.06259939
  |   Hirshfeld dipole moment :      0.08831066
  |   Hirshfeld second moments:      0.09628060       0.00203768       0.00977250
  |                                  0.00203768       0.11020128      -0.00431382
  |                                  0.00977250      -0.00431382       0.09784123
  ----------------------------------------------------------------------


  Total energy components:
  | Sum of eigenvalues            :         -89.22713408 Ha       -2427.99385321 eV
  | XC energy correction          :         -24.41291914 Ha        -664.30932953 eV
  | XC potential correction       :          31.36298760 Ha         853.43031473 eV
  | Free-atom electrostatic energy:         -68.00950656 Ha       -1850.63283275 eV
  | Hartree energy correction     :          -6.77333208 Ha        -184.31174345 eV
  | vdW energy correction         :          -0.00202327 Ha          -0.05505611 eV
  | Entropy correction            :           0.00000000 Ha           0.00000000 eV
  | ---------------------------
  | Total energy                  :        -157.06192753 Ha       -4273.87250033 eV
  | Total energy, T -> 0          :        -157.06192753 Ha       -4273.87250033 eV  <-- do not rely on this value for anything but (periodic) metals
  | Electronic free energy        :        -157.06192753 Ha       -4273.87250033 eV

  Derived energy quantities:
  | Kinetic energy                :         156.29416227 Ha        4252.98054463 eV
  | Electrostatic energy          :        -288.94114738 Ha       -7862.48865932 eV
  | Energy correction for multipole
  | error in Hartree potential    :           0.03193043 Ha           0.86887131 eV
  | Sum of eigenvalues per atom                           :        -202.33282110 eV
  | Total energy (T->0) per atom                          :        -356.15604169 eV  <-- do not rely on this value for anything but (periodic) metals
  | Electronic free energy per atom                       :        -356.15604169 eV

  atomic forces [eV/Ang]:
  -----------------------
  atom #    1
   Hellmann-Feynman              :  0.303513E+00  0.180268E+00 -0.109600E-01
   Ionic forces                  :  0.000000E+00  0.000000E+00  0.000000E+00
   Multipole                     : -0.563162E+00 -0.384117E+00  0.430527E-02
   Pulay + GGA                   :  0.259938E+00  0.199903E+00  0.674038E-02
   Van der Waals                 : -0.633504E-03  0.367635E-02  0.283176E-04
   ----------------------------------------------------------------
   Total forces(   1)            : -0.344137E-03 -0.269945E-03  0.113952E-03
  atom #    2
   Hellmann-Feynman              :  0.215756E+01 -0.103262E+00  0.552457E-01
   Ionic forces                  :  0.000000E+00  0.000000E+00  0.000000E+00
   Multipole                     : -0.151396E+00 -0.284407E-01 -0.465305E-01
   Pulay + GGA                   : -0.200687E+01  0.133366E+00 -0.912508E-02
   Van der Waals                 :  0.230015E-03 -0.155133E-02 -0.671739E-05
   ----------------------------------------------------------------
   Total forces(   2)            : -0.483103E-03  0.111611E-03 -0.416598E-03
  atom #    3
   Hellmann-Feynman              : -0.215756E+01  0.103262E+00  0.552462E-01
   Ionic forces                  :  0.000000E+00  0.000000E+00  0.000000E+00
   Multipole                     :  0.151396E+00  0.284408E-01 -0.465305E-01
   Pulay + GGA                   :  0.200687E+01 -0.133366E+00 -0.912560E-02
   Van der Waals                 : -0.230014E-03  0.155133E-02 -0.671698E-05
   ----------------------------------------------------------------
   Total forces(   3)            :  0.483105E-03 -0.111615E-03 -0.416608E-03
  atom #    4
   Hellmann-Feynman              : -0.303513E+00 -0.180268E+00 -0.109600E-01
   Ionic forces                  :  0.000000E+00  0.000000E+00  0.000000E+00
   Multipole                     :  0.563162E+00  0.384117E+00  0.430522E-02
   Pulay + GGA                   : -0.259938E+00 -0.199903E+00  0.674039E-02
   Van der Waals                 :  0.633504E-03 -0.367635E-02  0.283166E-04
   ----------------------------------------------------------------
   Total forces(   4)            :  0.344137E-03  0.269942E-03  0.113948E-03
  atom #    5
   Hellmann-Feynman              :  0.748738E-01  0.195725E-01  0.237802E-01
   Ionic forces                  :  0.000000E+00  0.000000E+00  0.000000E+00
   Multipole                     : -0.323461E-01 -0.127594E+00 -0.167922E-01
   Pulay + GGA                   : -0.347575E-01  0.106892E+00  0.101408E-01
   Van der Waals                 : -0.712992E-02 -0.120443E-02 -0.461691E-03
   ----------------------------------------------------------------
   Total forces(   5)            :  0.640312E-03 -0.233341E-02  0.166671E-01
  atom #    6
   Hellmann-Feynman              :  0.286152E-01  0.356260E-01 -0.101964E-01
   Ionic forces                  :  0.000000E+00  0.000000E+00  0.000000E+00
   Multipole                     : -0.970125E-01 -0.124906E-01 -0.666825E-01
   Pulay + GGA                   :  0.734104E-01 -0.305142E-01  0.677974E-01
   Van der Waals                 :  0.138008E-02 -0.319429E-02 -0.934718E-03
   ----------------------------------------------------------------
   Total forces(   6)            :  0.639315E-02 -0.105732E-01 -0.100163E-01
  atom #    7
   Hellmann-Feynman              : -0.237764E-03  0.476825E-01 -0.656383E-03
   Ionic forces                  :  0.000000E+00  0.000000E+00  0.000000E+00
   Multipole                     : -0.756009E-01 -0.225829E-01  0.759810E-01
   Pulay + GGA                   :  0.652792E-01 -0.956302E-02 -0.820610E-01
   Van der Waals                 :  0.155237E-02 -0.264962E-02  0.897926E-03
   ----------------------------------------------------------------
   Total forces(   7)            : -0.900707E-02  0.128869E-01 -0.583842E-02
  atom #    8
   Hellmann-Feynman              : -0.354985E-01 -0.401309E-01  0.130421E-02
   Ionic forces                  :  0.000000E+00  0.000000E+00  0.000000E+00
   Multipole                     :  0.203475E-01  0.148600E+00 -0.180318E-02
   Pulay + GGA                   :  0.165008E-01 -0.110983E+00 -0.966712E-03
   Van der Waals                 : -0.189265E-02  0.232112E-02  0.476884E-03
   ----------------------------------------------------------------
   Total forces(   8)            : -0.542870E-03 -0.192449E-03 -0.988798E-03
  atom #    9
   Hellmann-Feynman              :  0.354985E-01  0.401309E-01  0.130418E-02
   Ionic forces                  :  0.000000E+00  0.000000E+00  0.000000E+00
   Multipole                     : -0.203475E-01 -0.148600E+00 -0.180321E-02
   Pulay + GGA                   : -0.165008E-01  0.110983E+00 -0.966681E-03
   Van der Waals                 :  0.189265E-02 -0.232112E-02  0.476883E-03
   ----------------------------------------------------------------
   Total forces(   9)            :  0.542871E-03  0.192446E-03 -0.988827E-03
  atom #   10
   Hellmann-Feynman              : -0.748738E-01 -0.195725E-01  0.237802E-01
   Ionic forces                  :  0.000000E+00  0.000000E+00  0.000000E+00
   Multipole                     :  0.323461E-01  0.127594E+00 -0.167922E-01
   Pulay + GGA                   :  0.347575E-01 -0.106892E+00  0.101408E-01
   Van der Waals                 :  0.712992E-02  0.120443E-02 -0.461692E-03
   ----------------------------------------------------------------
   Total forces(  10)            : -0.640305E-03  0.233340E-02  0.166671E-01
  atom #   11
   Hellmann-Feynman              :  0.237745E-03 -0.476825E-01 -0.656396E-03
   Ionic forces                  :  0.000000E+00  0.000000E+00  0.000000E+00
   Multipole                     :  0.756009E-01  0.225829E-01  0.759810E-01
   Pulay + GGA                   : -0.652792E-01  0.956305E-02 -0.820609E-01
   Van der Waals                 : -0.155237E-02  0.264962E-02  0.897927E-03
   ----------------------------------------------------------------
   Total forces(  11)            :  0.900706E-02 -0.128869E-01 -0.583843E-02
  atom #   12
   Hellmann-Feynman              : -0.286152E-01 -0.356260E-01 -0.101964E-01
   Ionic forces                  :  0.000000E+00  0.000000E+00  0.000000E+00
   Multipole                     :  0.970125E-01  0.124906E-01 -0.666825E-01
   Pulay + GGA                   : -0.734104E-01  0.305142E-01  0.677975E-01
   Van der Waals                 : -0.138008E-02  0.319429E-02 -0.934717E-03
   ----------------------------------------------------------------
   Total forces(  12)            : -0.639314E-02  0.105731E-01 -0.100162E-01

  Timings for VdW correction (Tkatchenko-Scheffler 2009 or later):
  | CPU time:        0.040 s, Wall clock time:        0.042 s.
  Removing unitary transformations (pure translations, rotations) from forces on atoms.
  Atomic forces before filtering:
  | Net force on center of mass :   0.332552E-08 -0.147028E-07 -0.958052E-03 eV/A
  | Net torque on center of mass:  -0.372689E-08  0.179229E-07 -0.116123E-02 eV
  Atomic forces after filtering:
  | Net force on center of mass :   0.000000E+00 -0.278760E-17 -0.278760E-17 eV/A
  | Net torque on center of mass:  -0.442540E-17  0.147513E-16  0.737566E-18 eV

  Energy and forces in a compact form:
  | Total energy uncorrected      :         -0.427387250033267E+04 eV
  | Total energy corrected        :         -0.427387250033267E+04 eV  <-- do not rely on this value for anything but (periodic) metals
  | Electronic free energy        :         -0.427387250033267E+04 eV
  Total atomic forces (unitary forces cleaned) [eV/Ang]:
  |   1         -0.329215017929800E-03         -0.313277384861886E-03          0.193788933432185E-03
  |   2         -0.488340503505069E-03          0.968761176631335E-04         -0.336760925811583E-03
  |   3          0.488341163774518E-03         -0.968776876768589E-04         -0.336770119242101E-03
  |   4          0.329215032325657E-03          0.313277465457767E-03          0.193786048440297E-03
  |   5          0.679997583579144E-03         -0.237086470262899E-02          0.167469554461368E-01
  |   6          0.640127561539445E-02         -0.106328905948339E-01         -0.993641762052126E-02
  |   7         -0.899440080622756E-02          0.128308103447249E-01         -0.575858370046279E-02
  |   8         -0.573424285116693E-03         -0.211113103467013E-03         -0.908960867528692E-03
  |   9          0.573425250493045E-03          0.211111700934819E-03         -0.908989308919450E-03
  |  10         -0.679990983550332E-03          0.237085664293466E-02          0.167469397303977E-01
  |  11          0.899438478939004E-02         -0.128307974903489E-01         -0.575858652717637E-02
  |  12         -0.640126783862740E-02          0.106328886921023E-01         -0.993640108874474E-02

  ------------------------------------ 
  Start decomposition of the XC Energy 
  ------------------------------------ 
  X and C from original XC functional choice 
  Hartree-Fock Energy :          0.000000000 Ha              0.000000000 eV
  X Energy            :        -23.396938185 Ha           -636.663081080 eV
  C Energy            :         -1.015980957 Ha            -27.646248454 eV
  Total XC Energy     :        -24.412919142 Ha           -664.309329534 eV
  ------------------------------------ 
  LDA X and C from self-consistent density 
  X Energy LDA        :        -21.149930844 Ha           -575.518900347 eV
  C Energy LDA        :         -1.974405919 Ha            -53.726318625 eV
  ------------------------------------ 
  End decomposition of the XC Energy 
  ------------------------------------ 

------------------------------------------------------------

------------------------------------------------------------------------------
  Final output of selected total energy values:

  The following output summarizes some interesting total energy values
  at the end of a run (AFTER all relaxation, molecular dynamics, etc.).

  | Total energy of the DFT / Hartree-Fock s.c.f. calculation      :          -4273.872500333 eV
  | Final zero-broadening corrected energy (caution - metals only) :          -4273.872500333 eV
  | For reference only, the value of 1 Hartree used in FHI-aims is :             27.211384500 eV

  Before relying on these values, please be sure to understand exactly which
  total energy value is referred to by a given number. Different objects may
  all carry the same name 'total energy'. Definitions:

  Total energy of the DFT / Hartree-Fock s.c.f. calculation:
  | Note that this energy does not include ANY quantities calculated after the
  | s.c.f. cycle, in particular not ANY RPA, MP2, etc. many-body perturbation terms.

  Final zero-broadening corrected energy:
  | For metallic systems only, a broadening of the occupation numbers at the Fermi
  | level can be extrapolated back to zero broadening by an electron-gas inspired
  | formula. For all systems that are not real metals, this value can be
  | meaningless and should be avoided.

------------------------------------------------------------------------------
  Methods described in the following list of references were used in this FHI-aims run.
  If you publish the results, please make sure to cite these reference if they apply.
  FHI-aims is an academic code, and for our developers (often, Ph.D. students
  and postdocs), scientific credit in the community is essential.
  Thank you for helping us!

  For any use of FHI-aims, please cite:

    Volker Blum, Ralf Gehrke, Felix Hanke, Paula Havu, Ville Havu,
    Xinguo Ren, Karsten Reuter, and Matthias Scheffler
    'Ab initio molecular simulations with numeric atom-centered orbitals'
    Computer Physics Communications 180, 2175-2196 (2009)
    http://dx.doi.org/10.1016/j.cpc.2009.06.022


  For the real-space grid partitioning and parallelization used in this calculation, please cite:

    Ville Havu, Volker Blum, Paula Havu, and Matthias Scheffler,
    'Efficient O(N) integration for all-electron electronic structure calculation'
    'using numerically tabulated basis functions'
    Journal of Computational Physics 228, 8367-8379 (2009).
    http://dx.doi.org/10.1016/j.jcp.2009.08.008

  Of course, there are many other important community references, e.g., those cited in the
  above references. Our list is limited to references that describe implementations in the
  FHI-aims code. The reason is purely practical (length of this list) - please credit others as well.

------------------------------------------------------------
          Leaving FHI-aims.
          Date     :  20180215, Time     :  214239.378

          Computational steps:
          | Number of self-consistency cycles          :           14
          | Number of SCF (re)initializations          :            1

          Detailed time accounting                     :  max(cpu_time)    wall_clock(cpu1)
          | Total time                                 :        8.792 s           8.804 s
          | Preparation time                           :        0.128 s           0.134 s
          | Boundary condition initalization           :        0.000 s           0.002 s
          | Grid partitioning                          :        0.056 s           0.055 s
          | Preloading free-atom quantities on grid    :        0.004 s           0.003 s
          | Free-atom superposition energy             :        0.024 s           0.021 s
          | Total time for integrations                :        2.652 s           2.638 s
          | Total time for solution of K.-S. equations :        0.068 s           0.041 s
          | Total time for density & force components  :        2.680 s           2.661 s
          | Total time for mixing                      :        0.160 s           0.140 s
          | Total time for Hartree multipole update    :        0.168 s           0.141 s
          | Total time for Hartree multipole sum       :        2.808 s           2.784 s
          | Total time for total energy evaluation     :        0.020 s           0.014 s
          | Total time for vdW correction              :        0.040 s           0.042 s

          Partial memory accounting:
          | Residual value for overall tracked memory usage across tasks :           0.000 MB (should be 0.000 MB)
          | Peak values for overall tracked memory usage (after allocating hessian_basis_wave):
          |   Minimum:        1.582 MB (on task 1)
          |   Maximum:        1.582 MB (on task 1)
          |   Average:        1.582 MB
          | Largest tracked array allocation (hessian_basis_wave):
          |   Minimum:        0.765 MB (on task 1)
          |   Maximum:        0.765 MB (on task 1)
          |   Average:        0.765 MB
          Note:  These values currently only include a subset of arrays which are explicitly tracked.
          The "true" memory usage will be greater.

          Have a nice day.
------------------------------------------------------------
